                         Program Version 4.2.1 -  RELEASE  -
|  1> #
|  2> # ORCA calc attempt 1 :-)
|  3> #
|  4> ! BP86 D3BJ RIJCOSX def2-TZVP def2/J Grid6 FinalGrid6 MORead Freq
|  5> %moinp "C2H4.ges"
|  6> * xyz 0 1
|  7>   C   -2.83252487756844      1.00204264194502     -0.00000007658598
|  8>   C   -1.49963612018597      1.01519417061537     -0.00000005819342
|  9>   H   -3.41587582911219      1.92484016891515      0.00000002159661
| 10>   H   -3.39746589876550      0.06786341087030      0.00000005076815
| 11>   H   -0.93465786719244      1.94935269433362      0.00000004536629
| 12>   H   -0.91634940717546      0.09235691332054      0.00000001704835
| 13> *
| 14>
| 15>                          ****END OF INPUT****

CARTESIAN COORDINATES (ANGSTROEM)
---------------------------------
  C     -2.832525    1.002043   -0.000000
  C     -1.499636    1.015194   -0.000000
  H     -3.415876    1.924840    0.000000
  H     -3.397466    0.067863    0.000000
  H     -0.934658    1.949353    0.000000
  H     -0.916349    0.092357    0.000000

 Total Charge           Charge          ....    0
 Multiplicity           Mult            ....    1
 Number of Electrons    NEL             ....   16
 Basis Dimension        Dim             ....   86

ORBITAL ENERGIES
----------------

  NO   OCC          E(Eh)            E(eV)
   0   2.0000      -9.899366      -269.3754
   1   2.0000      -9.898726      -269.3580
   2   2.0000      -0.692847       -18.8533
   3   2.0000      -0.525442       -14.2980
   4   2.0000      -0.423659       -11.5283
   5   2.0000      -0.377780       -10.2799
   6   2.0000      -0.316040        -8.5999
   7   2.0000      -0.250396        -6.8136
   8   0.0000      -0.039176        -1.0660
   9   0.0000       0.049779         1.3546
  10   0.0000       0.070480         1.9179
  11   0.0000       0.075375         2.0511
  12   0.0000       0.140611         3.8262

MULLIKEN ATOMIC CHARGES
-----------------------
   0 C :   -0.233720
   1 C :   -0.233737
   2 H :    0.116865
   3 H :    0.116861
   4 H :    0.116866
   5 H :    0.116865
Sum of atomic charges:   -0.0000000

LOEWDIN ATOMIC CHARGES
----------------------
   0 C :   -0.242017
   1 C :   -0.242027
   2 H :    0.121009
   3 H :    0.121011
   4 H :    0.121011
   5 H :    0.121012

  Mayer bond orders larger than 0.100000
B(  0-C ,  1-C ) :   1.9622 B(  0-C ,  2-H ) :   0.9557 B(  0-C ,  3-H ) :   0.9557
B(  1-C ,  4-H ) :   0.9557 B(  1-C ,  5-H ) :   0.9557

Dispersion correction           -0.003325311
FINAL SINGLE POINT ENERGY       -78.618247222071

DIPOLE MOMENT
-------------
                                X             Y             Z
Electronic contribution:      0.00001       0.00005      -0.00000
Nuclear contribution   :     -0.00002      -0.00005       0.00000
                        -----------------------------------------
Total Dipole Moment    :     -0.00002      -0.00000       0.00000
                        -----------------------------------------
Magnitude (a.u.)       :      0.00002
Magnitude (Debye)      :      0.00004

Dispersion correction in the Hessian             ... done   (      0.5 sec)

VIBRATIONAL FREQUENCIES
-----------------------

Scaling factor for frequencies =  1.000000000  (already applied!)

   0:         0.00 cm**-1
   1:         0.00 cm**-1
   2:         0.00 cm**-1
   3:         0.00 cm**-1
   4:         0.00 cm**-1
   5:         0.00 cm**-1
   6:       809.30 cm**-1
   7:       933.48 cm**-1
   8:       938.74 cm**-1
   9:      1034.04 cm**-1
  10:      1205.35 cm**-1
  11:      1343.84 cm**-1
  12:      1429.09 cm**-1
  13:      1641.50 cm**-1
  14:      3058.23 cm**-1
  15:      3070.93 cm**-1
  16:      3128.44 cm**-1
  17:      3156.61 cm**-1

IR SPECTRUM
-----------

 Mode    freq (cm**-1)   T**2         TX         TY         TZ
-------------------------------------------------------------------
   6:       809.30    0.390208  ( -0.006027   0.624637   0.000000)
   7:       933.48    0.000019  ( -0.000000   0.000000  -0.004306)
   8:       938.74  100.351336  (  0.000001   0.000000  10.017551)
   9:      1034.04    0.000000  (  0.000000   0.000001  -0.000134)
  10:      1205.35    0.000000  ( -0.000353  -0.000078  -0.000000)
  11:      1343.84    0.000000  (  0.000084  -0.000191   0.000000)
  12:      1429.09    8.652356  (  2.941345   0.029059   0.000000)
  13:      1641.50    0.000000  ( -0.000100   0.000165   0.000000)
  14:      3058.23   18.807296  ( -4.336524  -0.043071  -0.000000)
  15:      3070.93    0.000002  ( -0.001325   0.000101  -0.000000)
  16:      3128.44    0.000000  (  0.000222   0.000385  -0.000000)
  17:      3156.61   21.438312  ( -0.045441   4.629930   0.000000)

--------------------------
THERMOCHEMISTRY AT 298.15K
--------------------------

Temperature         ... 298.15 K
Pressure            ... 1.00 atm
Total Mass          ... 28.05 AMU

Throughout the following assumptions are being made:
  (1) The electronic state is orbitally nondegenerate
  (2) There are no thermally accessible electronically excited states
  (3) Hindered rotations indicated by low frequency modes are not
      treated as such but are treated as vibrations and this may
      cause some error
  (4) All equations used are the standard statistical mechanics
      equations for an ideal gas
  (5) All vibrations are strictly harmonic

freq.     809.30  E(vib)   ...       0.05
freq.     933.48  E(vib)   ...       0.03
freq.     938.74  E(vib)   ...       0.03
freq.    1034.04  E(vib)   ...       0.02
freq.    1205.35  E(vib)   ...       0.01
freq.    1343.84  E(vib)   ...       0.01
freq.    1429.09  E(vib)   ...       0.00
freq.    1641.50  E(vib)   ...       0.00
freq.    3058.23  E(vib)   ...       0.00
freq.    3070.93  E(vib)   ...       0.00
freq.    3128.44  E(vib)   ...       0.00
freq.    3156.61  E(vib)   ...       0.00

------------
INNER ENERGY
------------

The inner energy is: U= E(el) + E(ZPE) + E(vib) + E(rot) + E(trans)
    E(el)   - is the total energy from the electronic structure calculation
              = E(kin-el) + E(nuc-el) + E(el-el) + E(nuc-nuc)
    E(ZPE)  - the the zero temperature vibrational energy from the frequency calculation
    E(vib)  - the the finite temperature correction to E(ZPE) due to population
              of excited vibrational states
    E(rot)  - is the rotational thermal energy
    E(trans)- is the translational thermal energy

Summary of contributions to the inner energy U:
Electronic energy                ...    -78.61824722 Eh
Zero point energy                ...      0.04954917 Eh      31.09 kcal/mol
Thermal vibrational correction   ...      0.00023733 Eh       0.15 kcal/mol
Thermal rotational correction    ...      0.00141627 Eh       0.89 kcal/mol
Thermal translational correction ...      0.00141627 Eh       0.89 kcal/mol
-----------------------------------------------------------------------
Total thermal energy                    -78.56562818 Eh

Summary of corrections to the electronic energy:
(perhaps to be used in another calculation)
Total thermal correction                  0.00306987 Eh       1.93 kcal/mol
Non-thermal (ZPE) correction              0.04954917 Eh      31.09 kcal/mol
-----------------------------------------------------------------------
Total correction                          0.05261904 Eh      33.02 kcal/mol

--------
ENTHALPY
--------

The enthalpy is H = U + kB*T
                kB is Boltzmann's constant
Total free energy                 ...    -78.56562818 Eh
Thermal Enthalpy correction       ...      0.00094421 Eh       0.59 kcal/mol
-----------------------------------------------------------------------
Total Enthalpy                    ...    -78.56468397 Eh

Note: Rotational entropy computed according to Herzberg
Infrared and Raman Spectra, Chapter V,1, Van Nostrand Reinhold, 1945
Point Group:  Cs, Symmetry Number:   1
Rotational constants in cm-1:     4.849272     0.998888     0.828274

Vibrational entropy computed according to the QRRHO of S. Grimme
Chem.Eur.J. 2012 18 9955

-------
ENTROPY
-------

The entropy contributions are T*S = T*(S(el)+S(vib)+S(rot)+S(trans))
     S(el)   - electronic entropy
     S(vib)  - vibrational entropy
     S(rot)  - rotational entropy
     S(trans)- translational entropy
The entropies will be listed as mutliplied by the temperature to get
units of energy

Electronic entropy                ...      0.00000000 Eh      0.00 kcal/mol
Vibrational entropy               ...      0.00028942 Eh      0.18 kcal/mol
Rotational entropy                ...      0.00885493 Eh      5.56 kcal/mol
Translational entropy             ...      0.01707111 Eh     10.71 kcal/mol
-----------------------------------------------------------------------
Final entropy term                ...      0.02621546 Eh     16.45 kcal/mol

In case the symmetry of your molecule has not been determined correctly
or in case you have a reason to use a different symmetry number we print
out the resulting rotational entropy values for sn=1,12 :
 --------------------------------------------------------
|  sn= 1 | S(rot)=       0.00885493 Eh      5.56 kcal/mol|
|  sn= 2 | S(rot)=       0.00820048 Eh      5.15 kcal/mol|
|  sn= 3 | S(rot)=       0.00781764 Eh      4.91 kcal/mol|
|  sn= 4 | S(rot)=       0.00754602 Eh      4.74 kcal/mol|
|  sn= 5 | S(rot)=       0.00733533 Eh      4.60 kcal/mol|
|  sn= 6 | S(rot)=       0.00716319 Eh      4.49 kcal/mol|
|  sn= 7 | S(rot)=       0.00701764 Eh      4.40 kcal/mol|
|  sn= 8 | S(rot)=       0.00689156 Eh      4.32 kcal/mol|
|  sn= 9 | S(rot)=       0.00678035 Eh      4.25 kcal/mol|
|  sn=10 | S(rot)=       0.00668088 Eh      4.19 kcal/mol|
|  sn=11 | S(rot)=       0.00659089 Eh      4.14 kcal/mol|
|  sn=12 | S(rot)=       0.00650873 Eh      4.08 kcal/mol|
 --------------------------------------------------------

-------------------
GIBBS FREE ENERGY
-------------------

The Gibbs free energy is G = H - T*S

Total enthalpy                    ...    -78.56468397 Eh
Total entropy correction          ...     -0.02621546 Eh    -16.45 kcal/mol
-----------------------------------------------------------------------
Final Gibbs free energy         ...    -78.59089943 Eh

For completeness - the Gibbs free energy minus the electronic energy
G-E(el)                           ...      0.02734779 Eh     17.16 kcal/mol

                             ****ORCA TERMINATED NORMALLY****
TOTAL RUN TIME: 0 days 0 hours 0 minutes 36 seconds 302 msec
