                         Program Version 4.2.1 -  RELEASE  -
|  1> #
|  2> # ORCA calc attempt 1 :-)
|  3> #
|  4> ! BP86 D3BJ RIJCOSX def2-TZVP def2/J Grid6 FinalGrid6 CPCM TightSCF
|  5> %moinp "C2H4.ges"
|  6> %cpcm
|  7> smd true
|  8> SMDsolvent "Toluene"
|  9> end
| 10> * xyz 0 1
| 11>   C   -2.83252487756844      1.00204264194502     -0.00000007658598
| 12>   C   -1.49963612018597      1.01519417061537     -0.00000005819342
| 13>   H   -3.41587582911219      1.92484016891515      0.00000002159661
| 14>   H   -3.39746589876550      0.06786341087030      0.00000005076815
| 15>   H   -0.93465786719244      1.94935269433362      0.00000004536629
| 16>   H   -0.91634940717546      0.09235691332054      0.00000001704835
| 17> *
| 18>
| 19>                          ****END OF INPUT****

CARTESIAN COORDINATES (ANGSTROEM)
---------------------------------
  C     -2.832525    1.002043   -0.000000
  C     -1.499636    1.015194   -0.000000
  H     -3.415876    1.924840    0.000000
  H     -3.397466    0.067863    0.000000
  H     -0.934658    1.949353    0.000000
  H     -0.916349    0.092357    0.000000

 Total Charge           Charge          ....    0
 Multiplicity           Mult            ....    1
 Number of Electrons    NEL             ....   16
 Basis Dimension        Dim             ....   86

ORBITAL ENERGIES
----------------

  NO   OCC          E(Eh)            E(eV)
   0   2.0000      -9.896197      -269.2892
   1   2.0000      -9.895557      -269.2718
   2   2.0000      -0.690488       -18.7891
   3   2.0000      -0.521752       -14.1976
   4   2.0000      -0.419861       -11.4250
   5   2.0000      -0.374267       -10.1843
   6   2.0000      -0.311447        -8.4749
   7   2.0000      -0.250071        -6.8048
   8   0.0000      -0.038028        -1.0348
   9   0.0000       0.056075         1.5259
  10   0.0000       0.077224         2.1014
  11   0.0000       0.082166         2.2359
  12   0.0000       0.147962         4.0263

MULLIKEN ATOMIC CHARGES
-----------------------
   0 C :   -0.276188
   1 C :   -0.276188
   2 H :    0.138101
   3 H :    0.138086
   4 H :    0.138089
   5 H :    0.138101
Sum of atomic charges:    0.0000000

LOEWDIN ATOMIC CHARGES
----------------------
   0 C :   -0.249816
   1 C :   -0.249815
   2 H :    0.124908
   3 H :    0.124907
   4 H :    0.124907
   5 H :    0.124910

  Mayer bond orders larger than 0.100000
B(  0-C ,  1-C ) :   1.9488 B(  0-C ,  2-H ) :   0.9536 B(  0-C ,  3-H ) :   0.9536
B(  1-C ,  4-H ) :   0.9536 B(  1-C ,  5-H ) :   0.9536

Dispersion correction           -0.003325311
FINAL SINGLE POINT ENERGY       -78.619927481382

DIPOLE MOMENT
-------------
                                X             Y             Z
Electronic contribution:      0.00002       0.00004      -0.00000
Nuclear contribution   :     -0.00002      -0.00005       0.00000
                        -----------------------------------------
Total Dipole Moment    :     -0.00000      -0.00000       0.00000
                        -----------------------------------------
Magnitude (a.u.)       :      0.00001
Magnitude (Debye)      :      0.00001

Rotational constants in cm-1:     4.849272     0.998888     0.828274
Rotational constants in MHz : 145377.514350 29945.911178 24831.035093

                             ****ORCA TERMINATED NORMALLY****
TOTAL RUN TIME: 0 days 0 hours 0 minutes 6 seconds 452 msec
