                         Program Version 4.2.1 -  RELEASE  -
|  1> #
|  2> # ORCA calc attempt 1 :-)
|  3> #
|  4> ! BP86 D3BJ RIJCOSX def2-TZVP def2/J Grid6 FinalGrid6 MORead CPCM TightSCF
|  5> %moinp "IM1_2F-1_Tight.ges"
|  6> %cpcm
|  7> smd true
|  8> SMDsolvent "Toluene"
|  9> end
| 10> * xyz 1 4
| 11>   Cr  0.33635983472405     -2.02176541705681     -1.33396407319528
| 12>   O   -1.50173695506261     -2.07216026842456     -0.34992253832519
| 13>   N   0.47430263220878     -0.45278933123217     -0.14142495627620
| 14>   N   2.24603596299312     -1.62487024304410     -1.61741337087192
| 15>   C   -2.59094859824813     -2.89533710761570     -0.74550676416799
| 16>   C   -2.70830764269911     -4.14320085454259     -0.14547646742878
| 17>   C   -3.45418718247453     -2.45200142923842     -1.74254152152185
| 18>   C   -3.72606242381215     -4.99610894066112     -0.58418864677821
| 19>   H   -2.02886992522242     -4.43068734175448      0.65704455651104
| 20>   C   -4.46907847002685     -3.31366714210964     -2.16549248371499
| 21>   H   -3.33696330599666     -1.45615990766070     -2.16823235230793
| 22>   C   -4.60008239571033     -4.58331746672599     -1.59314944797368
| 23>   H   -3.83747054987622     -5.97997377208511     -0.12887390814015
| 24>   H   -5.39241938651055     -5.25093699519338     -1.93099549127423
| 25>   H   -5.15782883397625     -2.98998490567525     -2.94569784482181
| 26>   C   -1.76743340234835     -0.92091145068577      0.43723946739613
| 27>   C   -0.66869048568930     -0.05216682064652      0.55601672258805
| 28>   C   -0.81965062683894      1.10183976231287      1.33761837178457
| 29>   C   -2.97957720946295     -0.69073999311843      1.06397222724978
| 30>   C   -3.10773932775664      0.46673751508400      1.84081008655543
| 31>   H   -3.80587217970097     -1.39112368629150      0.95322952054367
| 32>   C   -2.03533931116487      1.35365980552307      1.97319879630203
| 33>   H   0.00637796765931      1.80478525806138      1.44186334232090
| 34>   H   -4.05323451144389      0.67076658144570      2.34168236444311
| 35>   H   -2.14706267110751      2.25439780766911      2.57582586385026
| 36>   C   1.67819733203258      0.12059205839230     -0.11728034092266
| 37>   C   2.65673698957827     -0.48104986297914     -0.91358272741262
| 38>   C   3.31468415923717     -2.04979815236881     -2.33283505275113
| 39>   C   4.42712756568596     -1.21116934930578     -2.10377155234328
| 40>   H   3.25449957086479     -2.92002100425585     -2.98221659836989
| 41>   C   4.01604980340038     -0.21990706472572     -1.20748965922343
| 42>   H   4.61408439634042      0.59277502744830     -0.80578689598285
| 43>   H   5.41108703211857     -1.32718782239555     -2.54677179917943
| 44>   H   1.88351582178475      1.00119565460029      0.49605836284001
| 45>   C   -0.34107142268750     -1.06284178617407     -2.98239651773086
| 46>   H   0.42717404586188     -1.09516998376861     -3.76502348404421
| 47>   H   -0.54449635074618     -0.01978789501534     -2.70162725522902
| 48>   H   -1.26445086923020     -1.54892377663286     -3.32803608269079
| 49>   C   0.61029117451763     -4.37433234540221     -1.62245866198275
| 50>   C   -0.03070280280890     -4.04971610418394     -2.77085543776407
| 51>   H   1.69688992262005     -4.46514566076679     -1.57351920274594
| 52>   H   0.04961154324442     -4.69745306811383     -0.74057301983485
| 53>   H   0.51280192031145     -3.82939901685283     -3.69054321961393
| 54>   H   -1.12049083458148     -4.06614350383331     -2.83515230776500
| 55> *
| 56>
| 57>                          ****END OF INPUT****

CARTESIAN COORDINATES (ANGSTROEM)
---------------------------------
  Cr     0.336360   -2.021765   -1.333964
  O     -1.501737   -2.072160   -0.349923
  N      0.474303   -0.452789   -0.141425
  N      2.246036   -1.624870   -1.617413
  C     -2.590949   -2.895337   -0.745507
  C     -2.708308   -4.143201   -0.145476
  C     -3.454187   -2.452001   -1.742542
  C     -3.726062   -4.996109   -0.584189
  H     -2.028870   -4.430687    0.657045
  C     -4.469078   -3.313667   -2.165492
  H     -3.336963   -1.456160   -2.168232
  C     -4.600082   -4.583317   -1.593149
  H     -3.837471   -5.979974   -0.128874
  H     -5.392419   -5.250937   -1.930995
  H     -5.157829   -2.989985   -2.945698
  C     -1.767433   -0.920911    0.437239
  C     -0.668690   -0.052167    0.556017
  C     -0.819651    1.101840    1.337618
  C     -2.979577   -0.690740    1.063972
  C     -3.107739    0.466738    1.840810
  H     -3.805872   -1.391124    0.953230
  C     -2.035339    1.353660    1.973199
  H      0.006378    1.804785    1.441863
  H     -4.053235    0.670767    2.341682
  H     -2.147063    2.254398    2.575826
  C      1.678197    0.120592   -0.117280
  C      2.656737   -0.481050   -0.913583
  C      3.314684   -2.049798   -2.332835
  C      4.427128   -1.211169   -2.103772
  H      3.254500   -2.920021   -2.982217
  C      4.016050   -0.219907   -1.207490
  H      4.614084    0.592775   -0.805787
  H      5.411087   -1.327188   -2.546772
  H      1.883516    1.001196    0.496058
  C     -0.341071   -1.062842   -2.982397
  H      0.427174   -1.095170   -3.765023
  H     -0.544496   -0.019788   -2.701627
  H     -1.264451   -1.548924   -3.328036
  C      0.610291   -4.374332   -1.622459
  C     -0.030703   -4.049716   -2.770855
  H      1.696890   -4.465146   -1.573519
  H      0.049612   -4.697453   -0.740573
  H      0.512802   -3.829399   -3.690543
  H     -1.120491   -4.066144   -2.835152

 Total Charge           Charge          ....    1
 Multiplicity           Mult            ....    4
 Number of Electrons    NEL             ....  185
 Basis Dimension        Dim             ....  878

ORBITAL ENERGIES
----------------
                 SPIN UP ORBITALS
  NO   OCC          E(Eh)            E(eV)
   0   1.0000    -214.631455     -5840.4188
   1   1.0000     -24.364967      -663.0045
   2   1.0000     -20.729855      -564.0880
   3   1.0000     -20.728648      -564.0552
   4   1.0000     -20.725226      -563.9621
   5   1.0000     -18.918970      -514.8114
   6   1.0000     -14.095266      -383.5517
   7   1.0000     -14.074606      -382.9895
   8   1.0000     -10.031365      -272.9673
   9   1.0000     -10.029950      -272.9288
  10   1.0000     -10.018636      -272.6210
  11   1.0000     -10.006862      -272.3006
  12   1.0000      -9.986691      -271.7517
  13   1.0000      -9.986399      -271.7437
  14   1.0000      -9.982856      -271.6473
  15   1.0000      -9.982629      -271.6411
  16   1.0000      -9.968784      -271.2644
  17   1.0000      -9.968150      -271.2471
  18   1.0000      -9.964813      -271.1564
  19   1.0000      -9.963624      -271.1240
  20   1.0000      -9.963598      -271.1233
  21   1.0000      -9.963429      -271.1187
  22   1.0000      -9.959194      -271.0035
  23   1.0000      -9.958086      -270.9733
  24   1.0000      -9.957692      -270.9626
  25   1.0000      -9.955647      -270.9069
  26   1.0000      -9.946240      -270.6509
  27   1.0000      -9.926771      -270.1212
  28   1.0000      -2.843023       -77.3626
  29   1.0000      -1.837329       -49.9963
  30   1.0000      -1.835371       -49.9430
  31   1.0000      -1.826482       -49.7011
  32   1.0000      -1.080151       -29.3924
  33   1.0000      -0.950543       -25.8656
  34   1.0000      -0.923171       -25.1207
  35   1.0000      -0.852217       -23.1900
  36   1.0000      -0.838018       -22.8036
  37   1.0000      -0.781202       -21.2576
  38   1.0000      -0.774399       -21.0725
  39   1.0000      -0.755972       -20.5710
  40   1.0000      -0.748849       -20.3772
  41   1.0000      -0.745772       -20.2935
  42   1.0000      -0.731285       -19.8993
  43   1.0000      -0.711522       -19.3615
  44   1.0000      -0.659570       -17.9478
  45   1.0000      -0.653564       -17.7844
  46   1.0000      -0.646436       -17.5904
  47   1.0000      -0.620141       -16.8749
  48   1.0000      -0.605120       -16.4662
  49   1.0000      -0.603263       -16.4156
  50   1.0000      -0.592428       -16.1208
  51   1.0000      -0.580599       -15.7989
  52   1.0000      -0.558913       -15.2088
  53   1.0000      -0.546110       -14.8604
  54   1.0000      -0.536887       -14.6094
  55   1.0000      -0.523904       -14.2562
  56   1.0000      -0.515970       -14.0403
  57   1.0000      -0.506587       -13.7849
  58   1.0000      -0.498414       -13.5625
  59   1.0000      -0.495012       -13.4700
  60   1.0000      -0.468941       -12.7605
  61   1.0000      -0.465277       -12.6608
  62   1.0000      -0.458786       -12.4842
  63   1.0000      -0.455126       -12.3846
  64   1.0000      -0.453176       -12.3316
  65   1.0000      -0.449924       -12.2431
  66   1.0000      -0.444159       -12.0862
  67   1.0000      -0.433830       -11.8051
  68   1.0000      -0.433777       -11.8037
  69   1.0000      -0.408834       -11.1249
  70   1.0000      -0.407617       -11.0918
  71   1.0000      -0.404394       -11.0041
  72   1.0000      -0.403639       -10.9836
  73   1.0000      -0.399053       -10.8588
  74   1.0000      -0.396812       -10.7978
  75   1.0000      -0.394404       -10.7323
  76   1.0000      -0.389498       -10.5988
  77   1.0000      -0.381534       -10.3821
  78   1.0000      -0.376931       -10.2568
  79   1.0000      -0.375511       -10.2182
  80   1.0000      -0.370552       -10.0832
  81   1.0000      -0.365461        -9.9447
  82   1.0000      -0.358712        -9.7610
  83   1.0000      -0.350347        -9.5334
  84   1.0000      -0.307959        -8.3800
  85   1.0000      -0.301937        -8.2161
  86   1.0000      -0.299065        -8.1380
  87   1.0000      -0.297733        -8.1017
  88   1.0000      -0.294862        -8.0236
  89   1.0000      -0.282178        -7.6785
  90   1.0000      -0.272025        -7.4022
  91   1.0000      -0.266824        -7.2607
  92   1.0000      -0.250882        -6.8268
  93   1.0000      -0.236192        -6.4271
  94   0.0000      -0.181195        -4.9306
  95   0.0000      -0.152754        -4.1566
  96   0.0000      -0.144320        -3.9272
  97   0.0000      -0.111453        -3.0328
  98   0.0000      -0.109457        -2.9785

                 SPIN DOWN ORBITALS
  NO   OCC          E(Eh)            E(eV)
   0   1.0000    -214.631154     -5840.4106
   1   1.0000     -24.324774      -661.9108
   2   1.0000     -20.699993      -563.2754
   3   1.0000     -20.697791      -563.2155
   4   1.0000     -20.693824      -563.1076
   5   1.0000     -18.918983      -514.8117
   6   1.0000     -14.096392      -383.5823
   7   1.0000     -14.075609      -383.0168
   8   1.0000     -10.031376      -272.9676
   9   1.0000     -10.029855      -272.9262
  10   1.0000     -10.018148      -272.6077
  11   1.0000     -10.006737      -272.2972
  12   1.0000      -9.986348      -271.7423
  13   1.0000      -9.985392      -271.7163
  14   1.0000      -9.983320      -271.6599
  15   1.0000      -9.982239      -271.6305
  16   1.0000      -9.968749      -271.2634
  17   1.0000      -9.968095      -271.2457
  18   1.0000      -9.964789      -271.1557
  19   1.0000      -9.963698      -271.1260
  20   1.0000      -9.963613      -271.1237
  21   1.0000      -9.963440      -271.1190
  22   1.0000      -9.959147      -271.0022
  23   1.0000      -9.958123      -270.9743
  24   1.0000      -9.957531      -270.9582
  25   1.0000      -9.955609      -270.9059
  26   1.0000      -9.945985      -270.6440
  27   1.0000      -9.929241      -270.1884
  28   1.0000      -2.735780       -74.4443
  29   1.0000      -1.733783       -47.1786
  30   1.0000      -1.728937       -47.0468
  31   1.0000      -1.719566       -46.7918
  32   1.0000      -1.079759       -29.3817
  33   1.0000      -0.950426       -25.8624
  34   1.0000      -0.923437       -25.1280
  35   1.0000      -0.852128       -23.1876
  36   1.0000      -0.837959       -22.8020
  37   1.0000      -0.779974       -21.2242
  38   1.0000      -0.774014       -21.0620
  39   1.0000      -0.755828       -20.5671
  40   1.0000      -0.748445       -20.3662
  41   1.0000      -0.745702       -20.2916
  42   1.0000      -0.731216       -19.8974
  43   1.0000      -0.711319       -19.3560
  44   1.0000      -0.659819       -17.9546
  45   1.0000      -0.655641       -17.8409
  46   1.0000      -0.646174       -17.5833
  47   1.0000      -0.620040       -16.8721
  48   1.0000      -0.603394       -16.4192
  49   1.0000      -0.602962       -16.4074
  50   1.0000      -0.592175       -16.1139
  51   1.0000      -0.579756       -15.7760
  52   1.0000      -0.558802       -15.2058
  53   1.0000      -0.545557       -14.8454
  54   1.0000      -0.535641       -14.5755
  55   1.0000      -0.523504       -14.2453
  56   1.0000      -0.515008       -14.0141
  57   1.0000      -0.506280       -13.7766
  58   1.0000      -0.497507       -13.5378
  59   1.0000      -0.494428       -13.4541
  60   1.0000      -0.468743       -12.7551
  61   1.0000      -0.464413       -12.6373
  62   1.0000      -0.457583       -12.4515
  63   1.0000      -0.454866       -12.3775
  64   1.0000      -0.452589       -12.3156
  65   1.0000      -0.449196       -12.2232
  66   1.0000      -0.443442       -12.0667
  67   1.0000      -0.432624       -11.7723
  68   1.0000      -0.431891       -11.7523
  69   1.0000      -0.406643       -11.0653
  70   1.0000      -0.406480       -11.0609
  71   1.0000      -0.403070       -10.9681
  72   1.0000      -0.402939       -10.9645
  73   1.0000      -0.397118       -10.8061
  74   1.0000      -0.396256       -10.7827
  75   1.0000      -0.393449       -10.7063
  76   1.0000      -0.388735       -10.5780
  77   1.0000      -0.381409       -10.3787
  78   1.0000      -0.373722       -10.1695
  79   1.0000      -0.372969       -10.1490
  80   1.0000      -0.368301       -10.0220
  81   1.0000      -0.361138        -9.8271
  82   1.0000      -0.356784        -9.7086
  83   1.0000      -0.344451        -9.3730
  84   1.0000      -0.301511        -8.2045
  85   1.0000      -0.297679        -8.1002
  86   1.0000      -0.296906        -8.0792
  87   1.0000      -0.294341        -8.0094
  88   1.0000      -0.284773        -7.7491
  89   1.0000      -0.280949        -7.6450
  90   1.0000      -0.248100        -6.7511
  91   0.0000      -0.181610        -4.9419
  92   0.0000      -0.169679        -4.6172
  93   0.0000      -0.157066        -4.2740
  94   0.0000      -0.141785        -3.8582
  95   0.0000      -0.120959        -3.2915

MULLIKEN ATOMIC CHARGES AND SPIN POPULATIONS
--------------------------------------------
   0 Cr:    0.386965    3.298781
   1 O :   -0.283257   -0.022799
   2 N :   -0.122240   -0.088614
   3 N :   -0.114323   -0.102155
   4 C :    0.234205   -0.021588
   5 C :   -0.214376    0.009891
   6 C :   -0.233313    0.008966
   7 C :   -0.099727   -0.001490
   8 H :    0.172790    0.000075
   9 C :   -0.100283   -0.000832
  10 H :    0.186239   -0.000499
  11 C :   -0.124514    0.003526
  12 H :    0.156631    0.000009
  13 H :    0.155345   -0.000217
  14 H :    0.157515    0.000100
  15 C :    0.316500   -0.004830
  16 C :    0.099125    0.005373
  17 C :   -0.211259   -0.004495
  18 C :   -0.184559    0.001459
  19 C :   -0.139306   -0.002965
  20 H :    0.181703   -0.000100
  21 C :   -0.149373    0.002805
  22 H :    0.150566    0.000344
  23 H :    0.154931    0.000069
  24 H :    0.151929   -0.000312
  25 C :   -0.074033    0.036296
  26 C :    0.250307   -0.000942
  27 C :   -0.183727    0.029689
  28 C :   -0.096603    0.017340
  29 H :    0.172018   -0.000694
  30 C :   -0.270273    0.013303
  31 H :    0.156732   -0.000836
  32 H :    0.159797   -0.001537
  33 H :    0.163679   -0.002892
  34 C :   -0.586870   -0.248728
  35 H :    0.163322    0.019109
  36 H :    0.157113    0.026612
  37 H :    0.161484    0.018487
  38 C :   -0.272870   -0.057548
  39 C :   -0.182463    0.062125
  40 H :    0.191547    0.005085
  41 H :    0.181648    0.005793
  42 H :    0.175257   -0.000968
  43 H :    0.206019   -0.000197
Sum of atomic charges         :    1.0000000

LOEWDIN ATOMIC CHARGES AND SPIN POPULATIONS
-------------------------------------------
   0 Cr:    0.121841    2.921854
   1 O :    0.361718    0.007668
   2 N :    0.195971   -0.019052
   3 N :    0.178700   -0.009690
   4 C :   -0.221443    0.003968
   5 C :   -0.105220    0.001899
   6 C :   -0.103282    0.002632
   7 C :   -0.116032   -0.000177
   8 H :    0.167647    0.000015
   9 C :   -0.115092   -0.000053
  10 H :    0.170547    0.000053
  11 C :   -0.120014    0.002309
  12 H :    0.160578    0.000014
  13 H :    0.159684   -0.000003
  14 H :    0.160936    0.000054
  15 C :   -0.157957    0.000318
  16 C :   -0.171618    0.001266
  17 C :   -0.093263   -0.002590
  18 C :   -0.106016    0.001064
  19 C :   -0.120748   -0.001589
  20 H :    0.170711    0.000010
  21 C :   -0.127801    0.001491
  22 H :    0.160774    0.000046
  23 H :    0.160271   -0.000045
  24 H :    0.160105   -0.000122
  25 C :   -0.094920    0.021296
  26 C :   -0.216737    0.016746
  27 C :   -0.164999    0.015041
  28 C :   -0.155460    0.017109
  29 H :    0.152525   -0.000298
  30 C :   -0.093531    0.012683
  31 H :    0.155636    0.000029
  32 H :    0.151412   -0.000205
  33 H :    0.165674   -0.001281
  34 C :   -0.374920   -0.100954
  35 H :    0.131065    0.007904
  36 H :    0.136250    0.012248
  37 H :    0.127036    0.008093
  38 C :   -0.178599    0.005743
  39 C :   -0.137476    0.066314
  40 H :    0.156976    0.002786
  41 H :    0.156449    0.002926
  42 H :    0.156372    0.001046
  43 H :    0.156248    0.001436

  Mayer bond orders larger than 0.100000
B(  0-Cr,  1-O ) :   0.4135 B(  0-Cr,  2-N ) :   0.7272 B(  0-Cr,  3-N ) :   0.7752
B(  0-Cr, 34-C ) :   0.9947 B(  0-Cr, 38-C ) :   0.3468 B(  0-Cr, 39-C ) :   0.2910
B(  1-O ,  4-C ) :   0.6169 B(  1-O , 15-C ) :   0.7412 B(  1-O , 16-C ) :   0.1524
B(  2-N , 16-C ) :   1.0032 B(  2-N , 25-C ) :   1.4164 B(  3-N , 26-C ) :   0.9753
B(  3-N , 27-C ) :   1.3404 B(  4-C ,  5-C ) :   1.3990 B(  4-C ,  6-C ) :   1.3883
B(  5-C ,  7-C ) :   1.3746 B(  5-C ,  8-H ) :   0.9583 B(  6-C ,  9-C ) :   1.3840
B(  6-C , 10-H ) :   0.9517 B(  7-C , 11-C ) :   1.3814 B(  7-C , 12-H ) :   0.9620
B(  9-C , 11-C ) :   1.3738 B(  9-C , 14-H ) :   0.9616 B( 11-C , 13-H ) :   0.9645
B( 15-C , 16-C ) :   1.3625 B( 15-C , 18-C ) :   1.4004 B( 16-C , 17-C ) :   1.2997
B( 17-C , 21-C ) :   1.4020 B( 17-C , 22-H ) :   0.9641 B( 18-C , 19-C ) :   1.3685
B( 18-C , 20-H ) :   0.9364 B( 19-C , 21-C ) :   1.3860 B( 19-C , 23-H ) :   0.9649
B( 21-C , 24-H ) :   0.9674 B( 25-C , 26-C ) :   1.3346 B( 25-C , 33-H ) :   0.9231
B( 26-C , 30-C ) :   1.2381 B( 27-C , 28-C ) :   1.3462 B( 27-C , 29-H ) :   0.9477
B( 28-C , 30-C ) :   1.4303 B( 28-C , 32-H ) :   0.9659 B( 30-C , 31-H ) :   0.9859
B( 34-C , 35-H ) :   0.9437 B( 34-C , 36-H ) :   0.9365 B( 34-C , 37-H ) :   0.9292
B( 38-C , 39-C ) :   1.5657 B( 38-C , 40-H ) :   0.9376 B( 38-C , 41-H ) :   0.9337
B( 39-C , 42-H ) :   0.9426 B( 39-C , 43-H ) :   0.9411

Dispersion correction           -0.112627687
FINAL SINGLE POINT ENERGY     -2003.860450762772

DIPOLE MOMENT
-------------
                                X             Y             Z
Electronic contribution:      7.40542       2.17698       4.98945
Nuclear contribution   :     -7.46110      -2.99775      -5.02024
                        -----------------------------------------
Total Dipole Moment    :     -0.05568      -0.82077      -0.03080
                        -----------------------------------------
Magnitude (a.u.)       :      0.82323
Magnitude (Debye)      :      2.09249

Rotational constants in cm-1:     0.011142     0.006552     0.004524
Rotational constants in MHz :   334.015795   196.421538   135.626381

                             ****ORCA TERMINATED NORMALLY****
TOTAL RUN TIME: 0 days 0 hours 7 minutes 29 seconds 206 msec
