                         Program Version 4.2.1 -  RELEASE  -
|  1> #
|  2> # ORCA calc attempt 1 :-)
|  3> #
|  4> ! BP86 D3BJ RIJCOSX def2-TZVP def2/J Grid6 FinalGrid6 MORead CPCM TightSCF
|  5> %moinp "Cr2A_Tight.ges"
|  6> %cpcm
|  7> smd true
|  8> SMDsolvent "Toluene"
|  9> end
| 10> * xyz 1 4
| 11>   Cr  0.10144799434959     -2.18018613423685     -1.44724959538178
| 12>   O   -1.64016133391648     -2.22208642844092     -0.34569451628123
| 13>   N   0.41196163070254     -0.69395928856028     -0.24528364874298
| 14>   N   2.00959197371174     -1.94863883909233     -1.86804865611078
| 15>   C   -2.78486252267200     -2.90962053706220     -0.84050022468711
| 16>   C   -2.79678197046669     -4.29011197293731     -0.67955374903593
| 17>   C   -3.78503022154948     -2.21548299584227     -1.51459124765720
| 18>   C   -3.86062476550914     -5.01061452562067     -1.23153752786670
| 19>   H   -2.00169395363613     -4.78453515842185     -0.12035329971675
| 20>   C   -4.84488525914191     -2.95050765140527     -2.04858393942947
| 21>   H   -3.74101303957401     -1.13119473918277     -1.61171505978924
| 22>   C   -4.88076704671162     -4.34243220985051     -1.91202333041252
| 23>   H   -3.89316514629078     -6.09375489645344     -1.11644894957301
| 24>   H   -5.71118541360073     -4.90692427785236     -2.33534265248841
| 25>   H   -5.64232704779778     -2.43116279580468     -2.57976588213998
| 26>   C   -1.78908336048128     -1.10451803544352      0.51686694195038
| 27>   C   -0.64949790895446     -0.28369330699798      0.57066008152491
| 28>   C   -0.66933751036254      0.82766796311767      1.42391545819153
| 29>   C   -2.91796169110874     -0.87336055459970      1.28274645089380
| 30>   C   -2.91852275608065      0.24192473233208      2.12839203681394
| 31>   H   -3.77561234495212     -1.54191598343209      1.22690166124381
| 32>   C   -1.80429206974907      1.08419843392370      2.19297153360991
| 33>   H   0.19251216262255      1.49168960033490      1.48174402583840
| 34>   H   -3.79652097382438      0.44713935081409      2.73945419880493
| 35>   H   -1.81795737073580      1.95248260904556      2.85085823991480
| 36>   C   1.65478729870800     -0.20184206849547     -0.29797597005983
| 37>   C   2.53526350303830     -0.84587144127715     -1.16877496214519
| 38>   C   3.00884662811683     -2.43615553556914     -2.63974794338110
| 39>   C   4.18820939643496     -1.67996096009493     -2.45516491379123
| 40>   H   2.85470517502304     -3.29167319009914     -3.29313086121077
| 41>   C   3.89351888944621     -0.67590281339086     -1.53048555481523
| 42>   H   4.56682737565445      0.08616739509644     -1.14917533084533
| 43>   H   5.13834248527415     -1.85890570100360     -2.94814136368914
| 44>   H   1.95466779167100      0.64574245749044      0.32210255993880
| 45>   C   -0.66345853434921     -1.51591157752773     -3.14820252712893
| 46>   H   0.01182692551524     -0.84181650874107     -3.68663955453235
| 47>   H   -1.65766932692809     -1.07129067821733     -3.01450573969183
| 48>   H   -0.75511766187546     -2.47798173650133     -3.69642618812111
| 49> *
| 50>
| 51>                          ****END OF INPUT****

CARTESIAN COORDINATES (ANGSTROEM)
---------------------------------
  Cr     0.101448   -2.180186   -1.447250
  O     -1.640161   -2.222086   -0.345695
  N      0.411962   -0.693959   -0.245284
  N      2.009592   -1.948639   -1.868049
  C     -2.784863   -2.909621   -0.840500
  C     -2.796782   -4.290112   -0.679554
  C     -3.785030   -2.215483   -1.514591
  C     -3.860625   -5.010615   -1.231538
  H     -2.001694   -4.784535   -0.120353
  C     -4.844885   -2.950508   -2.048584
  H     -3.741013   -1.131195   -1.611715
  C     -4.880767   -4.342432   -1.912023
  H     -3.893165   -6.093755   -1.116449
  H     -5.711185   -4.906924   -2.335343
  H     -5.642327   -2.431163   -2.579766
  C     -1.789083   -1.104518    0.516867
  C     -0.649498   -0.283693    0.570660
  C     -0.669338    0.827668    1.423915
  C     -2.917962   -0.873361    1.282746
  C     -2.918523    0.241925    2.128392
  H     -3.775612   -1.541916    1.226902
  C     -1.804292    1.084198    2.192972
  H      0.192512    1.491690    1.481744
  H     -3.796521    0.447139    2.739454
  H     -1.817957    1.952483    2.850858
  C      1.654787   -0.201842   -0.297976
  C      2.535264   -0.845871   -1.168775
  C      3.008847   -2.436156   -2.639748
  C      4.188209   -1.679961   -2.455165
  H      2.854705   -3.291673   -3.293131
  C      3.893519   -0.675903   -1.530486
  H      4.566827    0.086167   -1.149175
  H      5.138342   -1.858906   -2.948141
  H      1.954668    0.645742    0.322103
  C     -0.663459   -1.515912   -3.148203
  H      0.011827   -0.841817   -3.686640
  H     -1.657669   -1.071291   -3.014506
  H     -0.755118   -2.477982   -3.696426

 Total Charge           Charge          ....    1
 Multiplicity           Mult            ....    4
 Number of Electrons    NEL             ....  169
 Basis Dimension        Dim             ....  792

ORBITAL ENERGIES
----------------
                 SPIN UP ORBITALS
  NO   OCC          E(Eh)            E(eV)
   0   1.0000    -214.637803     -5840.5915
   1   1.0000     -24.369318      -663.1229
   2   1.0000     -20.734893      -564.2251
   3   1.0000     -20.732222      -564.1524
   4   1.0000     -20.729513      -564.0787
   5   1.0000     -18.924742      -514.9684
   6   1.0000     -14.106678      -383.8622
   7   1.0000     -14.078802      -383.1037
   8   1.0000     -10.035867      -273.0898
   9   1.0000     -10.032870      -273.0083
  10   1.0000     -10.025194      -272.7994
  11   1.0000     -10.013292      -272.4755
  12   1.0000      -9.990476      -271.8547
  13   1.0000      -9.987846      -271.7831
  14   1.0000      -9.969356      -271.2800
  15   1.0000      -9.968977      -271.2697
  16   1.0000      -9.968939      -271.2686
  17   1.0000      -9.968052      -271.2445
  18   1.0000      -9.963354      -271.1167
  19   1.0000      -9.963158      -271.1113
  20   1.0000      -9.961754      -271.0731
  21   1.0000      -9.961431      -271.0643
  22   1.0000      -9.959688      -271.0169
  23   1.0000      -9.958394      -270.9817
  24   1.0000      -9.949370      -270.7361
  25   1.0000      -9.936007      -270.3725
  26   1.0000      -2.850570       -77.5679
  27   1.0000      -1.847413       -50.2707
  28   1.0000      -1.841840       -50.1190
  29   1.0000      -1.833754       -49.8990
  30   1.0000      -1.084995       -29.5242
  31   1.0000      -0.955784       -26.0082
  32   1.0000      -0.928598       -25.2684
  33   1.0000      -0.854932       -23.2639
  34   1.0000      -0.840944       -22.8832
  35   1.0000      -0.779282       -21.2053
  36   1.0000      -0.760837       -20.7034
  37   1.0000      -0.752889       -20.4872
  38   1.0000      -0.745980       -20.2991
  39   1.0000      -0.734010       -19.9734
  40   1.0000      -0.715307       -19.4645
  41   1.0000      -0.665111       -18.0986
  42   1.0000      -0.661772       -18.0077
  43   1.0000      -0.650707       -17.7066
  44   1.0000      -0.621804       -16.9201
  45   1.0000      -0.606637       -16.5074
  46   1.0000      -0.595569       -16.2063
  47   1.0000      -0.583210       -15.8700
  48   1.0000      -0.561904       -15.2902
  49   1.0000      -0.550679       -14.9847
  50   1.0000      -0.540920       -14.7192
  51   1.0000      -0.526808       -14.3352
  52   1.0000      -0.519237       -14.1292
  53   1.0000      -0.505602       -13.7581
  54   1.0000      -0.496660       -13.5148
  55   1.0000      -0.473153       -12.8751
  56   1.0000      -0.469445       -12.7742
  57   1.0000      -0.461551       -12.5594
  58   1.0000      -0.457672       -12.4539
  59   1.0000      -0.451128       -12.2758
  60   1.0000      -0.445839       -12.1319
  61   1.0000      -0.438944       -11.9443
  62   1.0000      -0.436473       -11.8770
  63   1.0000      -0.417133       -11.3508
  64   1.0000      -0.413356       -11.2480
  65   1.0000      -0.408985       -11.1291
  66   1.0000      -0.407977       -11.1016
  67   1.0000      -0.405915       -11.0455
  68   1.0000      -0.401778       -10.9329
  69   1.0000      -0.394892       -10.7455
  70   1.0000      -0.383089       -10.4244
  71   1.0000      -0.379412       -10.3243
  72   1.0000      -0.378319       -10.2946
  73   1.0000      -0.371301       -10.1036
  74   1.0000      -0.368805       -10.0357
  75   1.0000      -0.362141        -9.8544
  76   1.0000      -0.320509        -8.7215
  77   1.0000      -0.305989        -8.3264
  78   1.0000      -0.303252        -8.2519
  79   1.0000      -0.299354        -8.1458
  80   1.0000      -0.298315        -8.1176
  81   1.0000      -0.286056        -7.7840
  82   1.0000      -0.278284        -7.5725
  83   1.0000      -0.272613        -7.4182
  84   1.0000      -0.254813        -6.9338
  85   1.0000      -0.239953        -6.5295
  86   0.0000      -0.186736        -5.0814
  87   0.0000      -0.173463        -4.7202
  88   0.0000      -0.141831        -3.8594
  89   0.0000      -0.113237        -3.0813
  90   0.0000      -0.109474        -2.9789

                 SPIN DOWN ORBITALS
  NO   OCC          E(Eh)            E(eV)
   0   1.0000    -214.637509     -5840.5836
   1   1.0000     -24.328407      -662.0096
   2   1.0000     -20.705281      -563.4193
   3   1.0000     -20.700812      -563.2977
   4   1.0000     -20.696817      -563.1890
   5   1.0000     -18.924761      -514.9689
   6   1.0000     -14.108320      -383.9069
   7   1.0000     -14.079744      -383.1293
   8   1.0000     -10.035877      -273.0901
   9   1.0000     -10.032772      -273.0056
  10   1.0000     -10.024549      -272.7819
  11   1.0000     -10.013142      -272.4714
  12   1.0000      -9.990000      -271.8417
  13   1.0000      -9.987422      -271.7716
  14   1.0000      -9.969298      -271.2784
  15   1.0000      -9.968946      -271.2688
  16   1.0000      -9.968885      -271.2672
  17   1.0000      -9.968167      -271.2476
  18   1.0000      -9.963354      -271.1166
  19   1.0000      -9.963173      -271.1117
  20   1.0000      -9.961804      -271.0745
  21   1.0000      -9.961174      -271.0573
  22   1.0000      -9.959643      -271.0157
  23   1.0000      -9.958350      -270.9805
  24   1.0000      -9.949123      -270.7294
  25   1.0000      -9.938489      -270.4400
  26   1.0000      -2.741387       -74.5969
  27   1.0000      -1.744024       -47.4573
  28   1.0000      -1.733079       -47.1595
  29   1.0000      -1.723408       -46.8963
  30   1.0000      -1.084585       -29.5131
  31   1.0000      -0.955768       -26.0078
  32   1.0000      -0.928913       -25.2770
  33   1.0000      -0.854840       -23.2614
  34   1.0000      -0.840887       -22.8817
  35   1.0000      -0.778845       -21.1935
  36   1.0000      -0.760706       -20.6999
  37   1.0000      -0.752305       -20.4713
  38   1.0000      -0.745884       -20.2965
  39   1.0000      -0.733953       -19.9719
  40   1.0000      -0.715097       -19.4588
  41   1.0000      -0.667017       -18.1504
  42   1.0000      -0.662339       -18.0231
  43   1.0000      -0.650410       -17.6986
  44   1.0000      -0.621614       -16.9150
  45   1.0000      -0.606350       -16.4996
  46   1.0000      -0.595269       -16.1981
  47   1.0000      -0.582339       -15.8463
  48   1.0000      -0.561761       -15.2863
  49   1.0000      -0.550228       -14.9725
  50   1.0000      -0.539628       -14.6840
  51   1.0000      -0.526422       -14.3247
  52   1.0000      -0.518184       -14.1005
  53   1.0000      -0.505377       -13.7520
  54   1.0000      -0.495899       -13.4941
  55   1.0000      -0.473012       -12.8713
  56   1.0000      -0.468236       -12.7413
  57   1.0000      -0.460391       -12.5279
  58   1.0000      -0.457139       -12.4394
  59   1.0000      -0.450381       -12.2555
  60   1.0000      -0.444661       -12.0998
  61   1.0000      -0.437853       -11.9146
  62   1.0000      -0.434890       -11.8339
  63   1.0000      -0.414604       -11.2819
  64   1.0000      -0.412005       -11.2112
  65   1.0000      -0.407747       -11.0954
  66   1.0000      -0.407510       -11.0889
  67   1.0000      -0.405300       -11.0288
  68   1.0000      -0.400647       -10.9022
  69   1.0000      -0.394226       -10.7274
  70   1.0000      -0.382732       -10.4147
  71   1.0000      -0.377781       -10.2800
  72   1.0000      -0.375997       -10.2314
  73   1.0000      -0.368490       -10.0271
  74   1.0000      -0.365449        -9.9444
  75   1.0000      -0.360631        -9.8133
  76   1.0000      -0.305876        -8.3233
  77   1.0000      -0.304682        -8.2908
  78   1.0000      -0.301340        -8.1999
  79   1.0000      -0.297448        -8.0940
  80   1.0000      -0.289108        -7.8670
  81   1.0000      -0.281813        -7.6685
  82   1.0000      -0.253225        -6.8906
  83   0.0000      -0.178485        -4.8568
  84   0.0000      -0.166053        -4.5185
  85   0.0000      -0.149413        -4.0657
  86   0.0000      -0.146403        -3.9838
  87   0.0000      -0.138143        -3.7591

MULLIKEN ATOMIC CHARGES AND SPIN POPULATIONS
--------------------------------------------
   0 Cr:    0.659773    3.292630
   1 O :   -0.312464   -0.023356
   2 N :   -0.157204   -0.104541
   3 N :   -0.184930   -0.086906
   4 C :    0.364293   -0.022926
   5 C :   -0.274030    0.009568
   6 C :   -0.273400    0.007274
   7 C :   -0.093315   -0.002137
   8 H :    0.167034    0.001782
   9 C :   -0.084737   -0.000640
  10 H :    0.183828   -0.000420
  11 C :   -0.137249    0.003658
  12 H :    0.157037   -0.000029
  13 H :    0.155540   -0.000217
  14 H :    0.158108    0.000017
  15 C :    0.309345    0.000119
  16 C :    0.143226   -0.002105
  17 C :   -0.188816   -0.008311
  18 C :   -0.205269    0.002171
  19 C :   -0.125751   -0.004226
  20 H :    0.183521   -0.000044
  21 C :   -0.153414    0.003480
  22 H :    0.154877    0.000575
  23 H :    0.157398    0.000107
  24 H :    0.154471   -0.000495
  25 C :   -0.076924    0.052199
  26 C :    0.269830   -0.003858
  27 C :   -0.142557    0.036274
  28 C :   -0.097271    0.015132
  29 H :    0.165695   -0.000547
  30 C :   -0.263259    0.019146
  31 H :    0.159576   -0.001069
  32 H :    0.162612   -0.001610
  33 H :    0.170650   -0.005068
  34 C :   -0.589822   -0.232437
  35 H :    0.165895    0.022081
  36 H :    0.155018    0.019145
  37 H :    0.162686    0.015583
Sum of atomic charges         :    1.0000000

LOEWDIN ATOMIC CHARGES AND SPIN POPULATIONS
-------------------------------------------
   0 Cr:    0.381082    2.990943
   1 O :    0.353289    0.008643
   2 N :    0.196082   -0.034973
   3 N :    0.163614   -0.005274
   4 C :   -0.211042    0.004682
   5 C :   -0.099914    0.003040
   6 C :   -0.104535    0.002835
   7 C :   -0.114563    0.000008
   8 H :    0.169296    0.000225
   9 C :   -0.113729    0.000444
  10 H :    0.169852    0.000102
  11 C :   -0.119706    0.002192
  12 H :    0.160748    0.000012
  13 H :    0.159790   -0.000002
  14 H :    0.161223    0.000058
  15 C :   -0.160575    0.000621
  16 C :   -0.167572    0.000898
  17 C :   -0.091185   -0.004170
  18 C :   -0.103191    0.001375
  19 C :   -0.117996   -0.002260
  20 H :    0.170957    0.000031
  21 C :   -0.124154    0.001707
  22 H :    0.161708    0.000069
  23 H :    0.161179   -0.000041
  24 H :    0.161117   -0.000212
  25 C :   -0.091638    0.027340
  26 C :   -0.215897    0.020168
  27 C :   -0.154860    0.023171
  28 C :   -0.151750    0.018071
  29 H :    0.154208   -0.000172
  30 C :   -0.091264    0.018141
  31 H :    0.156662    0.000094
  32 H :    0.152393   -0.000256
  33 H :    0.168460   -0.002285
  34 C :   -0.384898   -0.097527
  35 H :    0.135651    0.009841
  36 H :    0.131221    0.007707
  37 H :    0.149936    0.004751

  Mayer bond orders larger than 0.100000
B(  0-Cr,  1-O ) :   0.4281 B(  0-Cr,  2-N ) :   0.8014 B(  0-Cr,  3-N ) :   0.7701
B(  0-Cr, 34-C ) :   1.0191 B(  1-O ,  4-C ) :   0.6687 B(  1-O , 15-C ) :   0.7141
B(  1-O , 16-C ) :   0.1525 B(  2-N , 16-C ) :   0.9977 B(  2-N , 25-C ) :   1.4275
B(  3-N , 26-C ) :   0.9419 B(  3-N , 27-C ) :   1.3542 B(  4-C ,  5-C ) :   1.3860
B(  4-C ,  6-C ) :   1.3626 B(  5-C ,  7-C ) :   1.3797 B(  5-C ,  8-H ) :   0.9637
B(  6-C ,  9-C ) :   1.3902 B(  6-C , 10-H ) :   0.9525 B(  7-C , 11-C ) :   1.3877
B(  7-C , 12-H ) :   0.9604 B(  9-C , 11-C ) :   1.3776 B(  9-C , 14-H ) :   0.9584
B( 11-C , 13-H ) :   0.9620 B( 15-C , 16-C ) :   1.3504 B( 15-C , 18-C ) :   1.4031
B( 16-C , 17-C ) :   1.2948 B( 17-C , 21-C ) :   1.4032 B( 17-C , 22-H ) :   0.9598
B( 18-C , 19-C ) :   1.3688 B( 18-C , 20-H ) :   0.9393 B( 19-C , 21-C ) :   1.3865
B( 19-C , 23-H ) :   0.9625 B( 21-C , 24-H ) :   0.9653 B( 25-C , 26-C ) :   1.3332
B( 25-C , 33-H ) :   0.9145 B( 26-C , 30-C ) :   1.2403 B( 27-C , 28-C ) :   1.3372
B( 27-C , 29-H ) :   0.9537 B( 28-C , 30-C ) :   1.4434 B( 28-C , 32-H ) :   0.9617
B( 30-C , 31-H ) :   0.9812 B( 34-C , 35-H ) :   0.9446 B( 34-C , 36-H ) :   0.9364
B( 34-C , 37-H ) :   0.9172

Dispersion correction           -0.093119341
FINAL SINGLE POINT ENERGY     -1925.204992865863

DIPOLE MOMENT
-------------
                                X             Y             Z
Electronic contribution:      9.31443      -3.61336       1.44392
Nuclear contribution   :     -9.27417       3.24305      -1.41537
                        -----------------------------------------
Total Dipole Moment    :      0.04026      -0.37031       0.02854
                        -----------------------------------------
Magnitude (a.u.)       :      0.37359
Magnitude (Debye)      :      0.94958

Rotational constants in cm-1:     0.013217     0.006916     0.004890
Rotational constants in MHz :   396.239918   207.328965   146.584104

                             ****ORCA TERMINATED NORMALLY****
TOTAL RUN TIME: 0 days 0 hours 6 minutes 42 seconds 410 msec
