                         Program Version 4.2.1 -  RELEASE  -
|  1> #
|  2> # ORCA calc attempt 1 :-)
|  3> #
|  4> ! BP86 D3BJ RIJCOSX def2-TZVP def2/J Grid6 FinalGrid6 MORead Freq
|  5> %moinp "IM2_2_Tight2.ges"
|  6> %scf
|  7> MaxIter 1000
|  8> end
|  9> * xyz 1 4
| 10>   Cr  -0.41036249812630     -1.14992914507252     -2.34004385040183
| 11>   O   -2.12216162168026     -1.14519690995948     -1.17754406423218
| 12>   N   0.33988703026649     -0.73204259358667     -0.59739838549546
| 13>   N   1.39371869203748     -0.67020857183810     -2.97302303339981
| 14>   C   -3.34390554453468     -1.70536034968726     -1.64620120851950
| 15>   C   -3.66400554684112     -3.02700635729837     -1.35050474678491
| 16>   C   -4.13177506422986     -0.89896189557377     -2.45829289610933
| 17>   C   -4.83334950636377     -3.55621520137024     -1.89917362636501
| 18>   H   -3.01807769339847     -3.62296675460979     -0.70697328280137
| 19>   C   -5.29451159090046     -1.44923909552683     -3.00751894028585
| 20>   H   -3.84761889171642      0.13740043123590     -2.64312877303583
| 21>   C   -5.64370340100394     -2.77196066384732     -2.72742212316734
| 22>   H   -5.10776750890581     -4.58837594360039     -1.68193949199870
| 23>   H   -6.55311872442182     -3.19503628712647     -3.15344355397352
| 24>   H   -5.92943666246462     -0.83590943420375     -3.64645289529595
| 25>   C   -1.85503756079315     -1.07888671475903      0.21405677193792
| 26>   C   -0.50272252959506     -0.83744104304993      0.51440040863371
| 27>   C   -0.13138472637682     -0.72410375422834      1.86075582858572
| 28>   C   -2.83203083170993     -1.18824960591296      1.18758381812022
| 29>   C   -2.44073828022568     -1.06945389013828      2.52629724884316
| 30>   H   -3.87214703631805     -1.35995658791455      0.91515917601268
| 31>   C   -1.10128666175692     -0.84248526894378      2.85614798512020
| 32>   H   0.91020102767248     -0.55146470921543      2.12989130009331
| 33>   H   -3.19164540741716     -1.15440097025637      3.31072226834300
| 34>   H   -0.80646121400757     -0.75758821770234      3.90152086268094
| 35>   C   1.63102075099352     -0.38833547679691     -0.62616077272784
| 36>   C   2.23051467379856     -0.35329116060220     -1.88651613719271
| 37>   C   2.15204046404166     -0.58073292825340     -4.08993781489894
| 38>   C   3.47340976643520     -0.20164616424406     -3.76100167551290
| 39>   H   1.73818803434386     -0.78866235613231     -5.07397858417130
| 40>   C   3.52705777747528     -0.05889302166001     -2.37314479051929
| 41>   H   4.38611708320086      0.22725930942193     -1.77344455250381
| 42>   H   4.28392115578175     -0.05291671626512     -4.46725053119347
| 43>   H   2.17253196304111     -0.14110385777583      0.28963662667176
| 44>   C   -0.35267540107599     -3.12327768522243     -2.62375947635333
| 45>   H   0.38915838183004     -3.31194081919587     -3.41592372968261
| 46>   H   -1.37423470714951     -3.29038184903767     -3.02789668280952
| 47>   C   -0.08762045225426     -3.95538329734195     -1.37850907096418
| 48>   C   -0.31157890775637     -5.45596694637017     -1.62213231958667
| 49>   H   -0.73421018554087     -3.62441881502411     -0.54850355977938
| 50>   H   0.94746296994232     -3.78565713679879     -1.04447413247005
| 51>   H   -1.34855803888203     -5.65504427716665     -1.92960024882350
| 52>   H   -0.10792794869059     -6.03420947880856     -0.71020976703853
| 53>   H   0.34966437327728     -5.82900778853928     -2.41639757694764
| 54> *
| 55>
| 56>                          ****END OF INPUT****

CARTESIAN COORDINATES (ANGSTROEM)
---------------------------------
  Cr    -0.410362   -1.149929   -2.340044
  O     -2.122162   -1.145197   -1.177544
  N      0.339887   -0.732043   -0.597398
  N      1.393719   -0.670209   -2.973023
  C     -3.343906   -1.705360   -1.646201
  C     -3.664006   -3.027006   -1.350505
  C     -4.131775   -0.898962   -2.458293
  C     -4.833350   -3.556215   -1.899174
  H     -3.018078   -3.622967   -0.706973
  C     -5.294512   -1.449239   -3.007519
  H     -3.847619    0.137400   -2.643129
  C     -5.643703   -2.771961   -2.727422
  H     -5.107768   -4.588376   -1.681939
  H     -6.553119   -3.195036   -3.153444
  H     -5.929437   -0.835909   -3.646453
  C     -1.855038   -1.078887    0.214057
  C     -0.502723   -0.837441    0.514400
  C     -0.131385   -0.724104    1.860756
  C     -2.832031   -1.188250    1.187584
  C     -2.440738   -1.069454    2.526297
  H     -3.872147   -1.359957    0.915159
  C     -1.101287   -0.842485    2.856148
  H      0.910201   -0.551465    2.129891
  H     -3.191645   -1.154401    3.310722
  H     -0.806461   -0.757588    3.901521
  C      1.631021   -0.388335   -0.626161
  C      2.230515   -0.353291   -1.886516
  C      2.152040   -0.580733   -4.089938
  C      3.473410   -0.201646   -3.761002
  H      1.738188   -0.788662   -5.073979
  C      3.527058   -0.058893   -2.373145
  H      4.386117    0.227259   -1.773445
  H      4.283921   -0.052917   -4.467251
  H      2.172532   -0.141104    0.289637
  C     -0.352675   -3.123278   -2.623759
  H      0.389158   -3.311941   -3.415924
  H     -1.374235   -3.290382   -3.027897
  C     -0.087620   -3.955383   -1.378509
  C     -0.311579   -5.455967   -1.622132
  H     -0.734210   -3.624419   -0.548504
  H      0.947463   -3.785657   -1.044474
  H     -1.348558   -5.655044   -1.929600
  H     -0.107928   -6.034209   -0.710210
  H      0.349664   -5.829008   -2.416398

 Total Charge           Charge          ....    1
 Multiplicity           Mult            ....    4
 Number of Electrons    NEL             ....  185
 Basis Dimension        Dim             ....  878

ORBITAL ENERGIES
----------------
                 SPIN UP ORBITALS
  NO   OCC          E(Eh)            E(eV)
   0   1.0000    -214.700814     -5842.3062
   1   1.0000     -24.430531      -664.7885
   2   1.0000     -20.796547      -565.9028
   3   1.0000     -20.793521      -565.8205
   4   1.0000     -20.790362      -565.7345
   5   1.0000     -18.989581      -516.7328
   6   1.0000     -14.171420      -385.6239
   7   1.0000     -14.143364      -384.8605
   8   1.0000     -10.099945      -274.8335
   9   1.0000     -10.097660      -274.7713
  10   1.0000     -10.091050      -274.5914
  11   1.0000     -10.077208      -274.2148
  12   1.0000     -10.055605      -273.6269
  13   1.0000     -10.052443      -273.5409
  14   1.0000     -10.035339      -273.0755
  15   1.0000     -10.034579      -273.0548
  16   1.0000     -10.033045      -273.0130
  17   1.0000     -10.032775      -273.0057
  18   1.0000     -10.028739      -272.8959
  19   1.0000     -10.028197      -272.8811
  20   1.0000     -10.025350      -272.8036
  21   1.0000     -10.025223      -272.8002
  22   1.0000     -10.023229      -272.7459
  23   1.0000     -10.023195      -272.7450
  24   1.0000     -10.012651      -272.4581
  25   1.0000     -10.010870      -272.4096
  26   1.0000     -10.009286      -272.3665
  27   1.0000      -9.986289      -271.7407
  28   1.0000      -2.912939       -79.2651
  29   1.0000      -1.911061       -52.0026
  30   1.0000      -1.904371       -51.8206
  31   1.0000      -1.895441       -51.5776
  32   1.0000      -1.150289       -31.3010
  33   1.0000      -1.020796       -27.7773
  34   1.0000      -0.993397       -27.0317
  35   1.0000      -0.919499       -25.0208
  36   1.0000      -0.905120       -24.6296
  37   1.0000      -0.843673       -22.9575
  38   1.0000      -0.825142       -22.4533
  39   1.0000      -0.821670       -22.3588
  40   1.0000      -0.816148       -22.2085
  41   1.0000      -0.811092       -22.0709
  42   1.0000      -0.798446       -21.7268
  43   1.0000      -0.779447       -21.2098
  44   1.0000      -0.728230       -19.8161
  45   1.0000      -0.716101       -19.4861
  46   1.0000      -0.715219       -19.4621
  47   1.0000      -0.687161       -18.6986
  48   1.0000      -0.672130       -18.2896
  49   1.0000      -0.660657       -17.9774
  50   1.0000      -0.648339       -17.6422
  51   1.0000      -0.638025       -17.3615
  52   1.0000      -0.627040       -17.0626
  53   1.0000      -0.615324       -16.7438
  54   1.0000      -0.606610       -16.5067
  55   1.0000      -0.591060       -16.0836
  56   1.0000      -0.585263       -15.9258
  57   1.0000      -0.571860       -15.5611
  58   1.0000      -0.562632       -15.3100
  59   1.0000      -0.537600       -14.6288
  60   1.0000      -0.536723       -14.6050
  61   1.0000      -0.529452       -14.4071
  62   1.0000      -0.526517       -14.3273
  63   1.0000      -0.522762       -14.2251
  64   1.0000      -0.516059       -14.0427
  65   1.0000      -0.507423       -13.8077
  66   1.0000      -0.503881       -13.7113
  67   1.0000      -0.499581       -13.5943
  68   1.0000      -0.487344       -13.2613
  69   1.0000      -0.475074       -12.9274
  70   1.0000      -0.472408       -12.8549
  71   1.0000      -0.471353       -12.8262
  72   1.0000      -0.466485       -12.6937
  73   1.0000      -0.463114       -12.6020
  74   1.0000      -0.458435       -12.4746
  75   1.0000      -0.454872       -12.3777
  76   1.0000      -0.448230       -12.1970
  77   1.0000      -0.444084       -12.0841
  78   1.0000      -0.441605       -12.0167
  79   1.0000      -0.436594       -11.8803
  80   1.0000      -0.433993       -11.8096
  81   1.0000      -0.426953       -11.6180
  82   1.0000      -0.413404       -11.2493
  83   1.0000      -0.403310       -10.9746
  84   1.0000      -0.369584       -10.0569
  85   1.0000      -0.366854        -9.9826
  86   1.0000      -0.365100        -9.9349
  87   1.0000      -0.363735        -9.8977
  88   1.0000      -0.361135        -9.8270
  89   1.0000      -0.349554        -9.5118
  90   1.0000      -0.341745        -9.2993
  91   1.0000      -0.337015        -9.1707
  92   1.0000      -0.318741        -8.6734
  93   1.0000      -0.303420        -8.2565
  94   0.0000      -0.256348        -6.9756
  95   0.0000      -0.239412        -6.5147
  96   0.0000      -0.204734        -5.5711
  97   0.0000      -0.176850        -4.8123
  98   0.0000      -0.175222        -4.7680

                 SPIN DOWN ORBITALS
  NO   OCC          E(Eh)            E(eV)
   0   1.0000    -214.700523     -5842.2983
   1   1.0000     -24.389604      -663.6749
   2   1.0000     -20.766869      -565.0952
   3   1.0000     -20.762040      -564.9638
   4   1.0000     -20.757777      -564.8478
   5   1.0000     -18.989573      -516.7325
   6   1.0000     -14.173050      -385.6683
   7   1.0000     -14.144323      -384.8866
   8   1.0000     -10.099963      -274.8340
   9   1.0000     -10.097552      -274.7683
  10   1.0000     -10.090474      -274.5758
  11   1.0000     -10.077071      -274.2110
  12   1.0000     -10.055141      -273.6143
  13   1.0000     -10.052007      -273.5290
  14   1.0000     -10.035295      -273.0743
  15   1.0000     -10.034530      -273.0534
  16   1.0000     -10.033016      -273.0122
  17   1.0000     -10.032890      -273.0088
  18   1.0000     -10.028748      -272.8961
  19   1.0000     -10.028212      -272.8815
  20   1.0000     -10.025402      -272.8051
  21   1.0000     -10.024968      -272.7933
  22   1.0000     -10.023187      -272.7448
  23   1.0000     -10.023158      -272.7440
  24   1.0000     -10.012389      -272.4510
  25   1.0000     -10.011991      -272.4401
  26   1.0000     -10.010593      -272.4021
  27   1.0000      -9.986489      -271.7462
  28   1.0000      -2.803575       -76.2891
  29   1.0000      -1.807332       -49.1800
  30   1.0000      -1.795253       -48.8513
  31   1.0000      -1.785182       -48.5773
  32   1.0000      -1.149834       -31.2886
  33   1.0000      -1.020857       -27.7789
  34   1.0000      -0.993711       -27.0403
  35   1.0000      -0.919415       -25.0186
  36   1.0000      -0.905076       -24.6284
  37   1.0000      -0.843274       -22.9467
  38   1.0000      -0.825042       -22.4505
  39   1.0000      -0.822727       -22.3875
  40   1.0000      -0.815610       -22.1939
  41   1.0000      -0.811039       -22.0695
  42   1.0000      -0.798398       -21.7255
  43   1.0000      -0.779247       -21.2044
  44   1.0000      -0.727821       -19.8050
  45   1.0000      -0.717936       -19.5360
  46   1.0000      -0.714983       -19.4557
  47   1.0000      -0.686999       -18.6942
  48   1.0000      -0.671845       -18.2818
  49   1.0000      -0.660397       -17.9703
  50   1.0000      -0.647494       -17.6192
  51   1.0000      -0.638573       -17.3765
  52   1.0000      -0.626904       -17.0589
  53   1.0000      -0.614918       -16.7328
  54   1.0000      -0.605387       -16.4734
  55   1.0000      -0.590653       -16.0725
  56   1.0000      -0.584234       -15.8978
  57   1.0000      -0.571649       -15.5554
  58   1.0000      -0.561831       -15.2882
  59   1.0000      -0.537327       -14.6214
  60   1.0000      -0.536072       -14.5872
  61   1.0000      -0.528032       -14.3685
  62   1.0000      -0.525665       -14.3041
  63   1.0000      -0.522387       -14.2149
  64   1.0000      -0.515682       -14.0324
  65   1.0000      -0.507250       -13.8030
  66   1.0000      -0.502821       -13.6825
  67   1.0000      -0.497781       -13.5453
  68   1.0000      -0.486888       -13.2489
  69   1.0000      -0.474064       -12.8999
  70   1.0000      -0.471646       -12.8341
  71   1.0000      -0.470535       -12.8039
  72   1.0000      -0.465371       -12.6634
  73   1.0000      -0.462107       -12.5746
  74   1.0000      -0.457863       -12.4591
  75   1.0000      -0.453842       -12.3497
  76   1.0000      -0.448014       -12.1911
  77   1.0000      -0.441626       -12.0172
  78   1.0000      -0.440249       -11.9798
  79   1.0000      -0.433574       -11.7981
  80   1.0000      -0.430470       -11.7137
  81   1.0000      -0.425362       -11.5747
  82   1.0000      -0.413144       -11.2422
  83   1.0000      -0.402441       -10.9510
  84   1.0000      -0.368369       -10.0238
  85   1.0000      -0.363887        -9.9019
  86   1.0000      -0.362306        -9.8589
  87   1.0000      -0.351876        -9.5750
  88   1.0000      -0.349862        -9.5202
  89   1.0000      -0.345489        -9.4012
  90   1.0000      -0.316271        -8.6062
  91   0.0000      -0.243174        -6.6171
  92   0.0000      -0.229939        -6.2570
  93   0.0000      -0.216316        -5.8863
  94   0.0000      -0.210105        -5.7172
  95   0.0000      -0.209644        -5.7047

MULLIKEN ATOMIC CHARGES AND SPIN POPULATIONS
--------------------------------------------
   0 Cr:    0.532162    3.346920
   1 O :   -0.300782   -0.026016
   2 N :   -0.143577   -0.108043
   3 N :   -0.170403   -0.092728
   4 C :    0.316591   -0.024537
   5 C :   -0.251193    0.006535
   6 C :   -0.260336    0.012348
   7 C :   -0.061988   -0.001199
   8 H :    0.165024   -0.000209
   9 C :   -0.071440   -0.001901
  10 H :    0.154528    0.001384
  11 C :   -0.117392    0.003079
  12 H :    0.146726    0.000074
  13 H :    0.146724   -0.000177
  14 H :    0.147465   -0.000030
  15 C :    0.272430    0.000236
  16 C :    0.140356    0.001334
  17 C :   -0.182931   -0.007685
  18 C :   -0.171927    0.002228
  19 C :   -0.110490   -0.004269
  20 H :    0.171813   -0.000050
  21 C :   -0.129105    0.003080
  22 H :    0.135930    0.000586
  23 H :    0.146286    0.000107
  24 H :    0.143316   -0.000495
  25 C :   -0.079429    0.043466
  26 C :    0.265676    0.000572
  27 C :   -0.137836    0.036478
  28 C :   -0.073686    0.015813
  29 H :    0.152412   -0.000557
  30 C :   -0.232851    0.019612
  31 H :    0.147363   -0.001056
  32 H :    0.152788   -0.001635
  33 H :    0.151331   -0.005073
  34 C :   -0.348532   -0.260016
  35 H :    0.146022    0.019429
  36 H :    0.155674    0.018800
  37 C :   -0.247294    0.017427
  38 C :   -0.331409   -0.007793
  39 H :    0.120594   -0.002552
  40 H :    0.123087   -0.000956
  41 H :    0.117013    0.000158
  42 H :    0.139675   -0.002837
  43 H :    0.131613    0.000148
Sum of atomic charges         :    1.0000000

LOEWDIN ATOMIC CHARGES AND SPIN POPULATIONS
-------------------------------------------
   0 Cr:    0.336258    3.024980
   1 O :    0.353616    0.009534
   2 N :    0.197531   -0.035382
   3 N :    0.160244   -0.005225
   4 C :   -0.218008    0.005342
   5 C :   -0.106312    0.002578
   6 C :   -0.101680    0.002549
   7 C :   -0.107898    0.000007
   8 H :    0.164791    0.000045
   9 C :   -0.106018   -0.000155
  10 H :    0.164389    0.000212
  11 C :   -0.109196    0.001734
  12 H :    0.159018    0.000077
  13 H :    0.158803   -0.000004
  14 H :    0.159151    0.000015
  15 C :   -0.168082    0.000578
  16 C :   -0.173861    0.000550
  17 C :   -0.089956   -0.004274
  18 C :   -0.102073    0.001253
  19 C :   -0.109338   -0.002417
  20 H :    0.167861    0.000031
  21 C :   -0.114964    0.001527
  22 H :    0.156176    0.000067
  23 H :    0.159327   -0.000040
  24 H :    0.159470   -0.000226
  25 C :   -0.101749    0.024172
  26 C :   -0.213235    0.020393
  27 C :   -0.153018    0.022771
  28 C :   -0.137516    0.018605
  29 H :    0.149840   -0.000160
  30 C :   -0.081321    0.018112
  31 H :    0.154114    0.000085
  32 H :    0.151533   -0.000267
  33 H :    0.161470   -0.002336
  34 C :   -0.295551   -0.104991
  35 H :    0.149158    0.007660
  36 H :    0.153812    0.005236
  37 C :   -0.304784   -0.002007
  38 C :   -0.298795   -0.007250
  39 H :    0.143670   -0.000957
  40 H :    0.151287   -0.000707
  41 H :    0.122902   -0.000051
  42 H :    0.129999   -0.001591
  43 H :    0.128934   -0.000072

  Mayer bond orders larger than 0.100000
B(  0-Cr,  1-O ) :   0.4215 B(  0-Cr,  2-N ) :   0.8221 B(  0-Cr,  3-N ) :   0.7771
B(  0-Cr, 34-C ) :   0.9686 B(  1-O ,  4-C ) :   0.6435 B(  1-O , 15-C ) :   0.7150
B(  1-O , 16-C ) :   0.1500 B(  2-N , 16-C ) :   0.9751 B(  2-N , 25-C ) :   1.4212
B(  3-N , 26-C ) :   0.9533 B(  3-N , 27-C ) :   1.3493 B(  4-C ,  5-C ) :   1.3794
B(  4-C ,  6-C ) :   1.4065 B(  5-C ,  7-C ) :   1.3997 B(  5-C ,  8-H ) :   0.9491
B(  6-C ,  9-C ) :   1.3857 B(  6-C , 10-H ) :   0.9605 B(  7-C , 11-C ) :   1.3858
B(  7-C , 12-H ) :   0.9556 B(  9-C , 11-C ) :   1.4014 B(  9-C , 14-H ) :   0.9544
B( 11-C , 13-H ) :   0.9571 B( 15-C , 16-C ) :   1.3509 B( 15-C , 18-C ) :   1.4102
B( 16-C , 17-C ) :   1.3108 B( 17-C , 21-C ) :   1.4276 B( 17-C , 22-H ) :   0.9531
B( 18-C , 19-C ) :   1.3787 B( 18-C , 20-H ) :   0.9350 B( 19-C , 21-C ) :   1.3976
B( 19-C , 23-H ) :   0.9566 B( 21-C , 24-H ) :   0.9585 B( 25-C , 26-C ) :   1.3537
B( 25-C , 33-H ) :   0.9112 B( 26-C , 30-C ) :   1.2478 B( 27-C , 28-C ) :   1.3497
B( 27-C , 29-H ) :   0.9485 B( 28-C , 30-C ) :   1.4652 B( 28-C , 32-H ) :   0.9590
B( 30-C , 31-H ) :   0.9736 B( 34-C , 35-H ) :   0.9262 B( 34-C , 36-H ) :   0.9181
B( 34-C , 37-C ) :   0.9605 B( 37-C , 38-C ) :   0.9576 B( 37-C , 39-H ) :   0.9616
B( 37-C , 40-H ) :   0.9479 B( 38-C , 41-H ) :   0.9660 B( 38-C , 42-H ) :   0.9629
B( 38-C , 43-H ) :   0.9670

Dispersion correction           -0.107819071
FINAL SINGLE POINT ENERGY     -2003.809428779203

DIPOLE MOMENT
-------------
                                X             Y             Z
Electronic contribution:      3.62037      18.10223      -5.20222
Nuclear contribution   :     -3.80133     -17.90260       5.04985
                        -----------------------------------------
Total Dipole Moment    :     -0.18096       0.19963      -0.15236
                        -----------------------------------------
Magnitude (a.u.)       :      0.30953
Magnitude (Debye)      :      0.78677

Dispersion correction in the Hessian             ... done   (      3.9 sec)

VIBRATIONAL FREQUENCIES
-----------------------

Scaling factor for frequencies =  1.000000000  (already applied!)

   0:         0.00 cm**-1
   1:         0.00 cm**-1
   2:         0.00 cm**-1
   3:         0.00 cm**-1
   4:         0.00 cm**-1
   5:         0.00 cm**-1
   6:        17.19 cm**-1
   7:        25.40 cm**-1
   8:        37.19 cm**-1
   9:        45.23 cm**-1
  10:        60.13 cm**-1
  11:        66.96 cm**-1
  12:        73.33 cm**-1
  13:       101.68 cm**-1
  14:       124.60 cm**-1
  15:       132.29 cm**-1
  16:       152.41 cm**-1
  17:       165.62 cm**-1
  18:       183.67 cm**-1
  19:       201.63 cm**-1
  20:       216.41 cm**-1
  21:       223.96 cm**-1
  22:       244.42 cm**-1
  23:       270.82 cm**-1
  24:       295.03 cm**-1
  25:       305.10 cm**-1
  26:       320.41 cm**-1
  27:       367.58 cm**-1
  28:       371.81 cm**-1
  29:       383.47 cm**-1
  30:       404.48 cm**-1
  31:       407.39 cm**-1
  32:       446.17 cm**-1
  33:       476.24 cm**-1
  34:       534.90 cm**-1
  35:       537.01 cm**-1
  36:       565.92 cm**-1
  37:       573.41 cm**-1
  38:       579.70 cm**-1
  39:       594.93 cm**-1
  40:       608.75 cm**-1
  41:       624.78 cm**-1
  42:       648.80 cm**-1
  43:       667.99 cm**-1
  44:       685.30 cm**-1
  45:       710.68 cm**-1
  46:       730.38 cm**-1
  47:       735.71 cm**-1
  48:       740.42 cm**-1
  49:       745.25 cm**-1
  50:       766.92 cm**-1
  51:       790.99 cm**-1
  52:       809.86 cm**-1
  53:       827.38 cm**-1
  54:       830.26 cm**-1
  55:       856.16 cm**-1
  56:       880.33 cm**-1
  57:       881.07 cm**-1
  58:       881.36 cm**-1
  59:       894.65 cm**-1
  60:       896.67 cm**-1
  61:       899.47 cm**-1
  62:       909.76 cm**-1
  63:       912.64 cm**-1
  64:       946.51 cm**-1
  65:       950.84 cm**-1
  66:       974.44 cm**-1
  67:       976.92 cm**-1
  68:       978.30 cm**-1
  69:       996.02 cm**-1
  70:      1017.76 cm**-1
  71:      1025.95 cm**-1
  72:      1032.46 cm**-1
  73:      1049.60 cm**-1
  74:      1072.14 cm**-1
  75:      1080.05 cm**-1
  76:      1084.43 cm**-1
  77:      1099.14 cm**-1
  78:      1135.87 cm**-1
  79:      1143.43 cm**-1
  80:      1155.66 cm**-1
  81:      1158.82 cm**-1
  82:      1166.31 cm**-1
  83:      1179.05 cm**-1
  84:      1184.57 cm**-1
  85:      1200.40 cm**-1
  86:      1249.57 cm**-1
  87:      1267.71 cm**-1
  88:      1278.41 cm**-1
  89:      1281.16 cm**-1
  90:      1294.52 cm**-1
  91:      1298.20 cm**-1
  92:      1315.69 cm**-1
  93:      1343.40 cm**-1
  94:      1348.84 cm**-1
  95:      1358.72 cm**-1
  96:      1380.20 cm**-1
  97:      1384.41 cm**-1
  98:      1430.16 cm**-1
  99:      1438.69 cm**-1
 100:      1445.39 cm**-1
 101:      1447.82 cm**-1
 102:      1452.75 cm**-1
 103:      1456.11 cm**-1
 104:      1462.56 cm**-1
 105:      1473.05 cm**-1
 106:      1489.72 cm**-1
 107:      1567.25 cm**-1
 108:      1574.36 cm**-1
 109:      1579.49 cm**-1
 110:      1597.18 cm**-1
 111:      1608.22 cm**-1
 112:      2879.26 cm**-1
 113:      2948.26 cm**-1
 114:      2966.71 cm**-1
 115:      2984.42 cm**-1
 116:      3001.27 cm**-1
 117:      3037.65 cm**-1
 118:      3044.99 cm**-1
 119:      3103.10 cm**-1
 120:      3114.73 cm**-1
 121:      3119.74 cm**-1
 122:      3120.06 cm**-1
 123:      3126.94 cm**-1
 124:      3128.65 cm**-1
 125:      3133.63 cm**-1
 126:      3136.17 cm**-1
 127:      3139.25 cm**-1
 128:      3143.69 cm**-1
 129:      3154.80 cm**-1
 130:      3172.90 cm**-1
 131:      3189.37 cm**-1

IR SPECTRUM
-----------

 Mode    freq (cm**-1)   T**2         TX         TY         TZ
-------------------------------------------------------------------
   6:        17.19    0.112650  ( -0.267321   0.094391  -0.179666)
   7:        25.40    0.020496  ( -0.115991   0.076172   0.035208)
   8:        37.19    0.070331  ( -0.136707  -0.223602  -0.040556)
   9:        45.23    0.346866  (  0.473187  -0.328428  -0.122860)
  10:        60.13    0.186822  ( -0.162601  -0.394138  -0.070977)
  11:        66.96    0.355090  ( -0.387174   0.425904  -0.154244)
  12:        73.33    0.127327  ( -0.200967  -0.210307  -0.206665)
  13:       101.68    0.610102  ( -0.143388  -0.758650   0.118288)
  14:       124.60    1.739980  ( -0.719609  -0.959727   0.548695)
  15:       132.29    0.258419  ( -0.449333   0.047087   0.233028)
  16:       152.41    2.200897  (  0.853418  -0.809075  -0.904418)
  17:       165.62    0.019063  ( -0.014652   0.108467  -0.084163)
  18:       183.67    2.168289  (  0.730545  -1.185956   0.477599)
  19:       201.63    2.802457  ( -1.417829   0.875243  -0.161761)
  20:       216.41    0.598996  (  0.269058   0.442259   0.575335)
  21:       223.96    2.035447  ( -1.156743  -0.038448   0.834215)
  22:       244.42    0.081263  ( -0.075898   0.273584   0.025575)
  23:       270.82    2.490865  ( -0.014029  -0.420647   1.521093)
  24:       295.03    2.600033  ( -0.523072   1.524883   0.034055)
  25:       305.10    1.658960  ( -0.486320  -1.180834  -0.167580)
  26:       320.41   15.231995  (  3.632524   0.833136  -1.158728)
  27:       367.58    9.487790  ( -1.548543  -1.987275  -1.772158)
  28:       371.81   10.691569  ( -1.585210   2.858005  -0.102400)
  29:       383.47   10.784199  ( -3.206430   0.705205   0.075432)
  30:       404.48    2.527778  ( -0.604361   1.280909  -0.722356)
  31:       407.39    0.739570  ( -0.391870   0.577868  -0.502072)
  32:       446.17    4.970964  ( -1.585614  -1.518430  -0.388796)
  33:       476.24   16.935194  ( -2.394175   0.795461   3.251209)
  34:       534.90   11.324190  ( -1.623268  -2.932633  -0.298086)
  35:       537.01    0.358605  (  0.258610  -0.502672  -0.197600)
  36:       565.92    0.739122  ( -0.015984   0.817911  -0.264364)
  37:       573.41    5.358199  (  0.645859  -2.193672   0.358981)
  38:       579.70    1.708197  ( -0.516752  -1.147575   0.352472)
  39:       594.93   12.001110  (  3.407863   0.338830  -0.522277)
  40:       608.75    1.870179  (  1.193457   0.417171  -0.521352)
  41:       624.78   12.404215  ( -3.174100  -0.865074   1.257358)
  42:       648.80    5.233801  ( -1.728947  -1.011546   1.105133)
  43:       667.99    6.417163  ( -0.212612   2.513338   0.234717)
  44:       685.30   20.284770  ( -2.416435   1.492758   3.495323)
  45:       710.68    9.752914  (  1.030676  -2.947968  -0.010107)
  46:       730.38   31.921894  (  4.056365  -2.303950  -3.187415)
  47:       735.71   44.727368  (  0.820750  -6.633090   0.236339)
  48:       740.42    0.572500  ( -0.051073  -0.342358  -0.672817)
  49:       745.25   57.680098  ( -1.670190   7.355684  -0.885709)
  50:       766.92    8.099427  (  2.185285   1.715840   0.616321)
  51:       790.99   39.979902  (  4.168368  -0.725894  -4.698690)
  52:       809.86    1.190032  (  0.348131  -0.379496  -0.961676)
  53:       827.38    1.869919  ( -0.047239  -1.365591   0.053373)
  54:       830.26    0.223242  (  0.429844   0.190006   0.048719)
  55:       856.16   61.028999  (  6.116454   1.797127   4.515343)
  56:       880.33    0.326322  (  0.321800   0.351423  -0.315069)
  57:       881.07    0.040829  (  0.125531   0.114360   0.109511)
  58:       881.36    1.032419  ( -0.918243  -0.290726   0.323616)
  59:       894.65    6.805618  (  0.948098  -1.305903  -2.049718)
  60:       896.67    7.178713  ( -0.344567   2.453839  -1.019147)
  61:       899.47   11.181355  (  1.985952  -0.784408  -2.573335)
  62:       909.76    1.402509  (  0.035449   1.159685   0.237450)
  63:       912.64    0.607183  ( -0.688277  -0.155489  -0.330577)
  64:       946.51    0.038245  (  0.115801   0.094126   0.126395)
  65:       950.84    0.072053  (  0.174349   0.132483   0.155255)
  66:       974.44   65.081575  ( -7.329494  -1.990825   2.719690)
  67:       976.92    0.140495  ( -0.291819   0.135350  -0.192398)
  68:       978.30    1.031883  (  0.284366  -0.258062   0.940438)
  69:       996.02   13.171499  (  3.152690   0.642541   1.679043)
  70:      1017.76    7.162077  (  2.449334   0.586741   0.904751)
  71:      1025.95    7.041553  ( -2.020256  -1.391233  -1.012219)
  72:      1032.46    7.357771  (  0.472845  -0.459438  -2.631179)
  73:      1049.60  121.808213  (  8.963621   1.871401  -6.161134)
  74:      1072.14    9.086447  ( -0.327765   2.598505  -1.492242)
  75:      1080.05    6.350024  ( -0.901152  -0.462262   2.307436)
  76:      1084.43   23.769795  (  3.930324   0.610511   2.819508)
  77:      1099.14   31.552333  ( -1.137348  -5.496811  -0.209388)
  78:      1135.87   90.842969  (  8.176549   2.662968   4.110427)
  79:      1143.43   26.300496  ( -3.842074  -1.639679  -2.974965)
  80:      1155.66    0.606167  (  0.431882  -0.024716  -0.647328)
  81:      1158.82    0.139714  ( -0.350935  -0.056339  -0.115693)
  82:      1166.31   41.421615  (  5.923747   1.075185   2.274822)
  83:      1179.05    1.199410  (  0.705648   0.828320   0.123925)
  84:      1184.57   35.306760  (  0.710425   1.267203   5.761619)
  85:      1200.40   47.255843  ( -6.304607  -2.609626  -0.835238)
  86:      1249.57   22.513878  (  4.319828   1.044926  -1.661653)
  87:      1267.71  108.632273  (  7.400480   1.327151  -7.218298)
  88:      1278.41    2.645558  (  0.834173  -0.368633  -1.346782)
  89:      1281.16   50.043110  ( -2.248208   0.237925   6.703138)
  90:      1294.52    0.600128  (  0.550078  -0.052662  -0.542927)
  91:      1298.20    0.206117  ( -0.412109  -0.140899   0.128183)
  92:      1315.69   30.566149  ( -1.056172   0.670750   5.385234)
  93:      1343.40    5.261334  (  1.176424   1.249574  -1.521817)
  94:      1348.84    7.371539  ( -2.190127   0.290454   1.578138)
  95:      1358.72    0.648043  ( -0.592377  -0.483993  -0.250765)
  96:      1380.20   17.694484  ( -1.547580  -0.530052   3.875374)
  97:      1384.41   90.635512  ( -1.053110   0.402225   9.453290)
  98:      1430.16   71.799243  ( -7.907082  -3.029615   0.314216)
  99:      1438.69    4.410194  (  1.169494   1.738739   0.138794)
 100:      1445.39    9.790195  (  2.930404  -0.919525  -0.597832)
 101:      1447.82    7.198022  (  1.800990  -0.862052   1.792016)
 102:      1452.75   23.075314  ( -1.975134  -2.012415  -3.889003)
 103:      1456.11    6.745107  (  1.485730   1.003772   1.878871)
 104:      1462.56   20.803487  (  0.769365  -0.066693  -4.495233)
 105:      1473.05   47.545047  (  6.082145   1.915154   2.623880)
 106:      1489.72  191.413939  (  7.737340   0.924446 -11.432100)
 107:      1567.25    9.544780  (  2.666096   1.067328   1.139088)
 108:      1574.36  373.909924  (-14.403450  -3.959740  12.278885)
 109:      1579.49   15.577401  (  0.835926   0.578653  -3.813632)
 110:      1597.18   19.511759  (  4.014372  -1.057084  -1.509685)
 111:      1608.22   44.097426  (  4.222718   2.413504  -4.521181)
 112:      2879.26   12.677197  (  2.224315  -1.596936   2.275833)
 113:      2948.26   11.419661  (  1.182797  -1.081424  -2.975092)
 114:      2966.71   25.540795  ( -1.043367  -4.873243  -0.838856)
 115:      2984.42    3.041557  (  0.942964   0.533944   1.366484)
 116:      3001.27   11.365639  ( -3.224003   0.203626   0.964354)
 117:      3037.65   26.878264  ( -4.833860   1.589090  -0.993406)
 118:      3044.99   12.599572  (  1.477622   0.165326  -3.223177)
 119:      3103.10    0.150209  ( -0.007027  -0.223750  -0.316379)
 120:      3114.73    1.432146  (  1.102470   0.146018   0.442024)
 121:      3119.74    0.834040  ( -0.513180   0.617683  -0.434918)
 122:      3120.06    1.173910  (  0.848584   0.155723  -0.655413)
 123:      3126.94    2.283357  ( -1.008732  -1.073225  -0.337648)
 124:      3128.65    0.634990  ( -0.693597  -0.247088   0.304730)
 125:      3133.63    1.207793  ( -0.857753  -0.078938  -0.682511)
 126:      3136.17    0.666046  ( -0.071351  -0.079838  -0.809062)
 127:      3139.25    0.471266  ( -0.652160  -0.075620  -0.200586)
 128:      3143.69    0.246111  (  0.313490   0.239327   0.300927)
 129:      3154.80    0.068929  (  0.243564  -0.066376   0.072110)
 130:      3172.90    0.201080  (  0.015580   0.053702   0.444919)
 131:      3189.37    0.910472  (  0.909185   0.173833  -0.231596)

--------------------------
THERMOCHEMISTRY AT 298.15K
--------------------------

Temperature         ... 298.15 K
Pressure            ... 1.00 atm
Total Mass          ... 356.39 AMU

Throughout the following assumptions are being made:
  (1) The electronic state is orbitally nondegenerate
      but the spin degeneracy is treated
  (2) There are no thermally accessible electronically excited states
  (3) Hindered rotations indicated by low frequency modes are not
      treated as such but are treated as vibrations and this may
      cause some error
  (4) All equations used are the standard statistical mechanics
      equations for an ideal gas
  (5) All vibrations are strictly harmonic

freq.      17.19  E(vib)   ...       0.57
freq.      25.40  E(vib)   ...       0.56
freq.      37.19  E(vib)   ...       0.54
freq.      45.23  E(vib)   ...       0.53
freq.      60.13  E(vib)   ...       0.51
freq.      66.96  E(vib)   ...       0.50
freq.      73.33  E(vib)   ...       0.49
freq.     101.68  E(vib)   ...       0.46
freq.     124.60  E(vib)   ...       0.43
freq.     132.29  E(vib)   ...       0.42
freq.     152.41  E(vib)   ...       0.40
freq.     165.62  E(vib)   ...       0.39
freq.     183.67  E(vib)   ...       0.37
freq.     201.63  E(vib)   ...       0.35
freq.     216.41  E(vib)   ...       0.34
freq.     223.96  E(vib)   ...       0.33
freq.     244.42  E(vib)   ...       0.31
freq.     270.82  E(vib)   ...       0.29
freq.     295.03  E(vib)   ...       0.27
freq.     305.10  E(vib)   ...       0.26
freq.     320.41  E(vib)   ...       0.25
freq.     367.58  E(vib)   ...       0.21
freq.     371.81  E(vib)   ...       0.21
freq.     383.47  E(vib)   ...       0.20
freq.     404.48  E(vib)   ...       0.19
freq.     407.39  E(vib)   ...       0.19
freq.     446.17  E(vib)   ...       0.17
freq.     476.24  E(vib)   ...       0.15
freq.     534.90  E(vib)   ...       0.13
freq.     537.01  E(vib)   ...       0.12
freq.     565.92  E(vib)   ...       0.11
freq.     573.41  E(vib)   ...       0.11
freq.     579.70  E(vib)   ...       0.11
freq.     594.93  E(vib)   ...       0.10
freq.     608.75  E(vib)   ...       0.10
freq.     624.78  E(vib)   ...       0.09
freq.     648.80  E(vib)   ...       0.08
freq.     667.99  E(vib)   ...       0.08
freq.     685.30  E(vib)   ...       0.07
freq.     710.68  E(vib)   ...       0.07
freq.     730.38  E(vib)   ...       0.06
freq.     735.71  E(vib)   ...       0.06
freq.     740.42  E(vib)   ...       0.06
freq.     745.25  E(vib)   ...       0.06
freq.     766.92  E(vib)   ...       0.06
freq.     790.99  E(vib)   ...       0.05
freq.     809.86  E(vib)   ...       0.05
freq.     827.38  E(vib)   ...       0.04
freq.     830.26  E(vib)   ...       0.04
freq.     856.16  E(vib)   ...       0.04
freq.     880.33  E(vib)   ...       0.04
freq.     881.07  E(vib)   ...       0.04
freq.     881.36  E(vib)   ...       0.04
freq.     894.65  E(vib)   ...       0.03
freq.     896.67  E(vib)   ...       0.03
freq.     899.47  E(vib)   ...       0.03
freq.     909.76  E(vib)   ...       0.03
freq.     912.64  E(vib)   ...       0.03
freq.     946.51  E(vib)   ...       0.03
freq.     950.84  E(vib)   ...       0.03
freq.     974.44  E(vib)   ...       0.03
freq.     976.92  E(vib)   ...       0.03
freq.     978.30  E(vib)   ...       0.03
freq.     996.02  E(vib)   ...       0.02
freq.    1017.76  E(vib)   ...       0.02
freq.    1025.95  E(vib)   ...       0.02
freq.    1032.46  E(vib)   ...       0.02
freq.    1049.60  E(vib)   ...       0.02
freq.    1072.14  E(vib)   ...       0.02
freq.    1080.05  E(vib)   ...       0.02
freq.    1084.43  E(vib)   ...       0.02
freq.    1099.14  E(vib)   ...       0.02
freq.    1135.87  E(vib)   ...       0.01
freq.    1143.43  E(vib)   ...       0.01
freq.    1155.66  E(vib)   ...       0.01
freq.    1158.82  E(vib)   ...       0.01
freq.    1166.31  E(vib)   ...       0.01
freq.    1179.05  E(vib)   ...       0.01
freq.    1184.57  E(vib)   ...       0.01
freq.    1200.40  E(vib)   ...       0.01
freq.    1249.57  E(vib)   ...       0.01
freq.    1267.71  E(vib)   ...       0.01
freq.    1278.41  E(vib)   ...       0.01
freq.    1281.16  E(vib)   ...       0.01
freq.    1294.52  E(vib)   ...       0.01
freq.    1298.20  E(vib)   ...       0.01
freq.    1315.69  E(vib)   ...       0.01
freq.    1343.40  E(vib)   ...       0.01
freq.    1348.84  E(vib)   ...       0.01
freq.    1358.72  E(vib)   ...       0.01
freq.    1380.20  E(vib)   ...       0.01
freq.    1384.41  E(vib)   ...       0.00
freq.    1430.16  E(vib)   ...       0.00
freq.    1438.69  E(vib)   ...       0.00
freq.    1445.39  E(vib)   ...       0.00
freq.    1447.82  E(vib)   ...       0.00
freq.    1452.75  E(vib)   ...       0.00
freq.    1456.11  E(vib)   ...       0.00
freq.    1462.56  E(vib)   ...       0.00
freq.    1473.05  E(vib)   ...       0.00
freq.    1489.72  E(vib)   ...       0.00
freq.    1567.25  E(vib)   ...       0.00
freq.    1574.36  E(vib)   ...       0.00
freq.    1579.49  E(vib)   ...       0.00
freq.    1597.18  E(vib)   ...       0.00
freq.    1608.22  E(vib)   ...       0.00
freq.    2879.26  E(vib)   ...       0.00
freq.    2948.26  E(vib)   ...       0.00
freq.    2966.71  E(vib)   ...       0.00
freq.    2984.42  E(vib)   ...       0.00
freq.    3001.27  E(vib)   ...       0.00
freq.    3037.65  E(vib)   ...       0.00
freq.    3044.99  E(vib)   ...       0.00
freq.    3103.10  E(vib)   ...       0.00
freq.    3114.73  E(vib)   ...       0.00
freq.    3119.74  E(vib)   ...       0.00
freq.    3120.06  E(vib)   ...       0.00
freq.    3126.94  E(vib)   ...       0.00
freq.    3128.65  E(vib)   ...       0.00
freq.    3133.63  E(vib)   ...       0.00
freq.    3136.17  E(vib)   ...       0.00
freq.    3139.25  E(vib)   ...       0.00
freq.    3143.69  E(vib)   ...       0.00
freq.    3154.80  E(vib)   ...       0.00
freq.    3172.90  E(vib)   ...       0.00
freq.    3189.37  E(vib)   ...       0.00

------------
INNER ENERGY
------------

The inner energy is: U= E(el) + E(ZPE) + E(vib) + E(rot) + E(trans)
    E(el)   - is the total energy from the electronic structure calculation
              = E(kin-el) + E(nuc-el) + E(el-el) + E(nuc-nuc)
    E(ZPE)  - the the zero temperature vibrational energy from the frequency calculation
    E(vib)  - the the finite temperature correction to E(ZPE) due to population
              of excited vibrational states
    E(rot)  - is the rotational thermal energy
    E(trans)- is the translational thermal energy

Summary of contributions to the inner energy U:
Electronic energy                ...  -2003.80942878 Eh
Zero point energy                ...      0.34290945 Eh     215.18 kcal/mol

Rotational constants in cm-1:     0.010379     0.005985     0.004840

                             ****ORCA TERMINATED NORMALLY****
TOTAL RUN TIME: 0 days 13 hours 4 minutes 41 seconds 460 msec
