                         Program Version 4.2.1 -  RELEASE  -
|  1> #
|  2> # ORCA calc attempt 1 :-)
|  3> #
|  4> ! BP86 D3BJ RIJCOSX def2-TZVP def2/J Grid6 FinalGrid6 MORead Freq
|  5> %moinp "Cr2A_Tight.ges"
|  6> * xyz 1 4
|  7>   Cr  0.10144799434959     -2.18018613423685     -1.44724959538178
|  8>   O   -1.64016133391648     -2.22208642844092     -0.34569451628123
|  9>   N   0.41196163070254     -0.69395928856028     -0.24528364874298
| 10>   N   2.00959197371174     -1.94863883909233     -1.86804865611078
| 11>   C   -2.78486252267200     -2.90962053706220     -0.84050022468711
| 12>   C   -2.79678197046669     -4.29011197293731     -0.67955374903593
| 13>   C   -3.78503022154948     -2.21548299584227     -1.51459124765720
| 14>   C   -3.86062476550914     -5.01061452562067     -1.23153752786670
| 15>   H   -2.00169395363613     -4.78453515842185     -0.12035329971675
| 16>   C   -4.84488525914191     -2.95050765140527     -2.04858393942947
| 17>   H   -3.74101303957401     -1.13119473918277     -1.61171505978924
| 18>   C   -4.88076704671162     -4.34243220985051     -1.91202333041252
| 19>   H   -3.89316514629078     -6.09375489645344     -1.11644894957301
| 20>   H   -5.71118541360073     -4.90692427785236     -2.33534265248841
| 21>   H   -5.64232704779778     -2.43116279580468     -2.57976588213998
| 22>   C   -1.78908336048128     -1.10451803544352      0.51686694195038
| 23>   C   -0.64949790895446     -0.28369330699798      0.57066008152491
| 24>   C   -0.66933751036254      0.82766796311767      1.42391545819153
| 25>   C   -2.91796169110874     -0.87336055459970      1.28274645089380
| 26>   C   -2.91852275608065      0.24192473233208      2.12839203681394
| 27>   H   -3.77561234495212     -1.54191598343209      1.22690166124381
| 28>   C   -1.80429206974907      1.08419843392370      2.19297153360991
| 29>   H   0.19251216262255      1.49168960033490      1.48174402583840
| 30>   H   -3.79652097382438      0.44713935081409      2.73945419880493
| 31>   H   -1.81795737073580      1.95248260904556      2.85085823991480
| 32>   C   1.65478729870800     -0.20184206849547     -0.29797597005983
| 33>   C   2.53526350303830     -0.84587144127715     -1.16877496214519
| 34>   C   3.00884662811683     -2.43615553556914     -2.63974794338110
| 35>   C   4.18820939643496     -1.67996096009493     -2.45516491379123
| 36>   H   2.85470517502304     -3.29167319009914     -3.29313086121077
| 37>   C   3.89351888944621     -0.67590281339086     -1.53048555481523
| 38>   H   4.56682737565445      0.08616739509644     -1.14917533084533
| 39>   H   5.13834248527415     -1.85890570100360     -2.94814136368914
| 40>   H   1.95466779167100      0.64574245749044      0.32210255993880
| 41>   C   -0.66345853434921     -1.51591157752773     -3.14820252712893
| 42>   H   0.01182692551524     -0.84181650874107     -3.68663955453235
| 43>   H   -1.65766932692809     -1.07129067821733     -3.01450573969183
| 44>   H   -0.75511766187546     -2.47798173650133     -3.69642618812111
| 45> *
| 46>
| 47>                          ****END OF INPUT****

CARTESIAN COORDINATES (ANGSTROEM)
---------------------------------
  Cr     0.101448   -2.180186   -1.447250
  O     -1.640161   -2.222086   -0.345695
  N      0.411962   -0.693959   -0.245284
  N      2.009592   -1.948639   -1.868049
  C     -2.784863   -2.909621   -0.840500
  C     -2.796782   -4.290112   -0.679554
  C     -3.785030   -2.215483   -1.514591
  C     -3.860625   -5.010615   -1.231538
  H     -2.001694   -4.784535   -0.120353
  C     -4.844885   -2.950508   -2.048584
  H     -3.741013   -1.131195   -1.611715
  C     -4.880767   -4.342432   -1.912023
  H     -3.893165   -6.093755   -1.116449
  H     -5.711185   -4.906924   -2.335343
  H     -5.642327   -2.431163   -2.579766
  C     -1.789083   -1.104518    0.516867
  C     -0.649498   -0.283693    0.570660
  C     -0.669338    0.827668    1.423915
  C     -2.917962   -0.873361    1.282746
  C     -2.918523    0.241925    2.128392
  H     -3.775612   -1.541916    1.226902
  C     -1.804292    1.084198    2.192972
  H      0.192512    1.491690    1.481744
  H     -3.796521    0.447139    2.739454
  H     -1.817957    1.952483    2.850858
  C      1.654787   -0.201842   -0.297976
  C      2.535264   -0.845871   -1.168775
  C      3.008847   -2.436156   -2.639748
  C      4.188209   -1.679961   -2.455165
  H      2.854705   -3.291673   -3.293131
  C      3.893519   -0.675903   -1.530486
  H      4.566827    0.086167   -1.149175
  H      5.138342   -1.858906   -2.948141
  H      1.954668    0.645742    0.322103
  C     -0.663459   -1.515912   -3.148203
  H      0.011827   -0.841817   -3.686640
  H     -1.657669   -1.071291   -3.014506
  H     -0.755118   -2.477982   -3.696426

 Total Charge           Charge          ....    1
 Multiplicity           Mult            ....    4
 Number of Electrons    NEL             ....  169
 Basis Dimension        Dim             ....  792

ORBITAL ENERGIES
----------------
                 SPIN UP ORBITALS
  NO   OCC          E(Eh)            E(eV)
   0   1.0000    -214.708800     -5842.5235
   1   1.0000     -24.440039      -665.0473
   2   1.0000     -20.805793      -566.1544
   3   1.0000     -20.802797      -566.0729
   4   1.0000     -20.800312      -566.0053
   5   1.0000     -18.993289      -516.8337
   6   1.0000     -14.176238      -385.7550
   7   1.0000     -14.147663      -384.9775
   8   1.0000     -10.102318      -274.8980
   9   1.0000     -10.100012      -274.8353
  10   1.0000     -10.094998      -274.6989
  11   1.0000     -10.080181      -274.2957
  12   1.0000     -10.059587      -273.7353
  13   1.0000     -10.056280      -273.6453
  14   1.0000     -10.036995      -273.1205
  15   1.0000     -10.036092      -273.0959
  16   1.0000     -10.035455      -273.0786
  17   1.0000     -10.035204      -273.0718
  18   1.0000     -10.029621      -272.9199
  19   1.0000     -10.029360      -272.9128
  20   1.0000     -10.029089      -272.9054
  21   1.0000     -10.027562      -272.8638
  22   1.0000     -10.025521      -272.8083
  23   1.0000     -10.024009      -272.7671
  24   1.0000     -10.016126      -272.5526
  25   1.0000     -10.007675      -272.3227
  26   1.0000      -2.921335       -79.4936
  27   1.0000      -1.918705       -52.2106
  28   1.0000      -1.912248       -52.0349
  29   1.0000      -1.904677       -51.8289
  30   1.0000      -1.153249       -31.3815
  31   1.0000      -1.024542       -27.8792
  32   1.0000      -0.997074       -27.1318
  33   1.0000      -0.921574       -25.0773
  34   1.0000      -0.907101       -24.6835
  35   1.0000      -0.846499       -23.0344
  36   1.0000      -0.827695       -22.5227
  37   1.0000      -0.820060       -22.3150
  38   1.0000      -0.812645       -22.1132
  39   1.0000      -0.800596       -21.7853
  40   1.0000      -0.782207       -21.2849
  41   1.0000      -0.735157       -20.0046
  42   1.0000      -0.730402       -19.8753
  43   1.0000      -0.717691       -19.5294
  44   1.0000      -0.688983       -18.7482
  45   1.0000      -0.674748       -18.3608
  46   1.0000      -0.663114       -18.0442
  47   1.0000      -0.650911       -17.7122
  48   1.0000      -0.629303       -17.1242
  49   1.0000      -0.618561       -16.8319
  50   1.0000      -0.609782       -16.5930
  51   1.0000      -0.594327       -16.1725
  52   1.0000      -0.588159       -16.0046
  53   1.0000      -0.573000       -15.5921
  54   1.0000      -0.563996       -15.3471
  55   1.0000      -0.540010       -14.6944
  56   1.0000      -0.536843       -14.6083
  57   1.0000      -0.529466       -14.4075
  58   1.0000      -0.525752       -14.3064
  59   1.0000      -0.518510       -14.1094
  60   1.0000      -0.513763       -13.9802
  61   1.0000      -0.507438       -13.8081
  62   1.0000      -0.504092       -13.7171
  63   1.0000      -0.488718       -13.2987
  64   1.0000      -0.482158       -13.1202
  65   1.0000      -0.477247       -12.9866
  66   1.0000      -0.475763       -12.9462
  67   1.0000      -0.474086       -12.9005
  68   1.0000      -0.469419       -12.7735
  69   1.0000      -0.461234       -12.5508
  70   1.0000      -0.449879       -12.2418
  71   1.0000      -0.446904       -12.1609
  72   1.0000      -0.445340       -12.1183
  73   1.0000      -0.439214       -11.9516
  74   1.0000      -0.436807       -11.8861
  75   1.0000      -0.429034       -11.6746
  76   1.0000      -0.391727       -10.6594
  77   1.0000      -0.372437       -10.1345
  78   1.0000      -0.369057       -10.0426
  79   1.0000      -0.366953        -9.9853
  80   1.0000      -0.364291        -9.9129
  81   1.0000      -0.353671        -9.6239
  82   1.0000      -0.349166        -9.5013
  83   1.0000      -0.341461        -9.2916
  84   1.0000      -0.324283        -8.8242
  85   1.0000      -0.308068        -8.3829
  86   0.0000      -0.260627        -7.0920
  87   0.0000      -0.244214        -6.6454
  88   0.0000      -0.211256        -5.7486
  89   0.0000      -0.178941        -4.8692
  90   0.0000      -0.176617        -4.8060

                 SPIN DOWN ORBITALS
  NO   OCC          E(Eh)            E(eV)
   0   1.0000    -214.708495     -5842.5152
   1   1.0000     -24.399362      -663.9404
   2   1.0000     -20.776432      -565.3555
   3   1.0000     -20.771484      -565.2208
   4   1.0000     -20.767791      -565.1203
   5   1.0000     -18.993299      -516.8339
   6   1.0000     -14.177858      -385.7991
   7   1.0000     -14.148568      -385.0021
   8   1.0000     -10.102324      -274.8982
   9   1.0000     -10.099915      -274.8327
  10   1.0000     -10.094426      -274.6833
  11   1.0000     -10.080043      -274.2919
  12   1.0000     -10.059150      -273.7234
  13   1.0000     -10.055822      -273.6328
  14   1.0000     -10.036935      -273.1189
  15   1.0000     -10.036040      -273.0945
  16   1.0000     -10.035426      -273.0778
  17   1.0000     -10.035312      -273.0747
  18   1.0000     -10.029619      -272.9198
  19   1.0000     -10.029376      -272.9132
  20   1.0000     -10.028863      -272.8992
  21   1.0000     -10.027607      -272.8650
  22   1.0000     -10.025478      -272.8071
  23   1.0000     -10.023966      -272.7660
  24   1.0000     -10.015841      -272.5449
  25   1.0000     -10.010191      -272.3911
  26   1.0000      -2.812737       -76.5385
  27   1.0000      -1.816058       -49.4175
  28   1.0000      -1.803722       -49.0818
  29   1.0000      -1.795048       -48.8457
  30   1.0000      -1.152828       -31.3700
  31   1.0000      -1.024539       -27.8791
  32   1.0000      -0.997352       -27.1393
  33   1.0000      -0.921480       -25.0747
  34   1.0000      -0.907044       -24.6819
  35   1.0000      -0.846084       -23.0231
  36   1.0000      -0.827570       -22.5193
  37   1.0000      -0.819458       -22.2986
  38   1.0000      -0.812547       -22.1105
  39   1.0000      -0.800538       -21.7837
  40   1.0000      -0.781989       -21.2790
  41   1.0000      -0.737843       -20.0777
  42   1.0000      -0.730360       -19.8741
  43   1.0000      -0.717401       -19.5215
  44   1.0000      -0.688783       -18.7427
  45   1.0000      -0.674461       -18.3530
  46   1.0000      -0.662799       -18.0357
  47   1.0000      -0.650092       -17.6899
  48   1.0000      -0.629151       -17.1201
  49   1.0000      -0.618118       -16.8199
  50   1.0000      -0.608546       -16.5594
  51   1.0000      -0.593897       -16.1608
  52   1.0000      -0.587079       -15.9752
  53   1.0000      -0.572785       -15.5863
  54   1.0000      -0.563181       -15.3249
  55   1.0000      -0.539772       -14.6879
  56   1.0000      -0.535671       -14.5764
  57   1.0000      -0.528222       -14.3736
  58   1.0000      -0.525173       -14.2907
  59   1.0000      -0.517772       -14.0893
  60   1.0000      -0.512572       -13.9478
  61   1.0000      -0.506393       -13.7797
  62   1.0000      -0.502392       -13.6708
  63   1.0000      -0.486472       -13.2376
  64   1.0000      -0.480754       -13.0820
  65   1.0000      -0.476043       -12.9538
  66   1.0000      -0.475049       -12.9267
  67   1.0000      -0.473529       -12.8854
  68   1.0000      -0.468181       -12.7399
  69   1.0000      -0.460543       -12.5320
  70   1.0000      -0.449236       -12.2243
  71   1.0000      -0.444593       -12.0980
  72   1.0000      -0.443130       -12.0582
  73   1.0000      -0.436851       -11.8873
  74   1.0000      -0.433619       -11.7994
  75   1.0000      -0.427941       -11.6449
  76   1.0000      -0.376702       -10.2506
  77   1.0000      -0.371176       -10.1002
  78   1.0000      -0.366760        -9.9800
  79   1.0000      -0.363214        -9.8835
  80   1.0000      -0.355303        -9.6683
  81   1.0000      -0.347523        -9.4566
  82   1.0000      -0.319766        -8.7013
  83   0.0000      -0.248439        -6.7604
  84   0.0000      -0.238119        -6.4795
  85   0.0000      -0.222576        -6.0566
  86   0.0000      -0.217295        -5.9129
  87   0.0000      -0.212827        -5.7913

MULLIKEN ATOMIC CHARGES AND SPIN POPULATIONS
--------------------------------------------
   0 Cr:    0.567621    3.299232
   1 O :   -0.310980   -0.025161
   2 N :   -0.156252   -0.101640
   3 N :   -0.180485   -0.088048
   4 C :    0.355878   -0.024250
   5 C :   -0.270461    0.010372
   6 C :   -0.270907    0.007175
   7 C :   -0.074985   -0.001872
   8 H :    0.156072    0.001726
   9 C :   -0.063175   -0.000452
  10 H :    0.170756   -0.000407
  11 C :   -0.117235    0.003503
  12 H :    0.147888   -0.000027
  13 H :    0.147495   -0.000209
  14 H :    0.148878    0.000011
  15 C :    0.292299    0.002103
  16 C :    0.141749   -0.004515
  17 C :   -0.166446   -0.007562
  18 C :   -0.191365    0.002003
  19 C :   -0.100577   -0.003578
  20 H :    0.173336   -0.000067
  21 C :   -0.133267    0.003095
  22 H :    0.137640    0.000562
  23 H :    0.147741    0.000075
  24 H :    0.144630   -0.000522
  25 C :   -0.074121    0.045409
  26 C :    0.266034   -0.000252
  27 C :   -0.122012    0.034101
  28 C :   -0.078444    0.017733
  29 H :    0.153527   -0.000478
  30 C :   -0.226224    0.016917
  31 H :    0.149654   -0.000919
  32 H :    0.154413   -0.001700
  33 H :    0.152483   -0.005100
  34 C :   -0.538868   -0.232117
  35 H :    0.166518    0.021646
  36 H :    0.148325    0.018997
  37 H :    0.152864    0.014219
Sum of atomic charges         :    1.0000000

LOEWDIN ATOMIC CHARGES AND SPIN POPULATIONS
-------------------------------------------
   0 Cr:    0.333853    2.995480
   1 O :    0.351276    0.008992
   2 N :    0.195865   -0.035194
   3 N :    0.160503   -0.003532
   4 C :   -0.214029    0.004822
   5 C :   -0.103475    0.003305
   6 C :   -0.106254    0.002778
   7 C :   -0.106072    0.000021
   8 H :    0.164445    0.000287
   9 C :   -0.105852    0.000507
  10 H :    0.165523    0.000101
  11 C :   -0.108811    0.002145
  12 H :    0.159262    0.000014
  13 H :    0.159013   -0.000002
  14 H :    0.159560    0.000059
  15 C :   -0.161991    0.000828
  16 C :   -0.168524    0.000594
  17 C :   -0.088980   -0.003912
  18 C :   -0.100787    0.001430
  19 C :   -0.108061   -0.001959
  20 H :    0.168006    0.000034
  21 C :   -0.113360    0.001691
  22 H :    0.156488    0.000071
  23 H :    0.159772   -0.000045
  24 H :    0.159943   -0.000235
  25 C :   -0.097639    0.024108
  26 C :   -0.212037    0.021315
  27 C :   -0.148109    0.021636
  28 C :   -0.135192    0.019476
  29 H :    0.150540   -0.000150
  30 C :   -0.078027    0.016765
  31 H :    0.154844    0.000109
  32 H :    0.152259   -0.000270
  33 H :    0.162314   -0.002402
  34 C :   -0.374058   -0.099996
  35 H :    0.137751    0.009634
  36 H :    0.131572    0.007584
  37 H :    0.148470    0.003911

  Mayer bond orders larger than 0.100000
B(  0-Cr,  1-O ) :   0.4358 B(  0-Cr,  2-N ) :   0.8207 B(  0-Cr,  3-N ) :   0.7903
B(  0-Cr, 34-C ) :   1.0340 B(  1-O ,  4-C ) :   0.6616 B(  1-O , 15-C ) :   0.7113
B(  1-O , 16-C ) :   0.1523 B(  2-N , 16-C ) :   0.9984 B(  2-N , 25-C ) :   1.4220
B(  3-N , 26-C ) :   0.9464 B(  3-N , 27-C ) :   1.3418 B(  4-C ,  5-C ) :   1.3937
B(  4-C ,  6-C ) :   1.3716 B(  5-C ,  7-C ) :   1.3951 B(  5-C ,  8-H ) :   0.9588
B(  6-C ,  9-C ) :   1.4023 B(  6-C , 10-H ) :   0.9528 B(  7-C , 11-C ) :   1.4046
B(  7-C , 12-H ) :   0.9534 B(  9-C , 11-C ) :   1.3904 B(  9-C , 14-H ) :   0.9520
B( 11-C , 13-H ) :   0.9557 B( 15-C , 16-C ) :   1.3601 B( 15-C , 18-C ) :   1.4176
B( 16-C , 17-C ) :   1.3057 B( 17-C , 21-C ) :   1.4242 B( 17-C , 22-H ) :   0.9525
B( 18-C , 19-C ) :   1.3798 B( 18-C , 20-H ) :   0.9342 B( 19-C , 21-C ) :   1.4006
B( 19-C , 23-H ) :   0.9552 B( 21-C , 24-H ) :   0.9570 B( 25-C , 26-C ) :   1.3554
B( 25-C , 33-H ) :   0.9097 B( 26-C , 30-C ) :   1.2530 B( 27-C , 28-C ) :   1.3550
B( 27-C , 29-H ) :   0.9471 B( 28-C , 30-C ) :   1.4659 B( 28-C , 32-H ) :   0.9581
B( 30-C , 31-H ) :   0.9712 B( 34-C , 35-H ) :   0.9455 B( 34-C , 36-H ) :   0.9373
B( 34-C , 37-H ) :   0.9115

Dispersion correction           -0.093119341
FINAL SINGLE POINT ENERGY     -1925.145292693375

DIPOLE MOMENT
-------------
                                X             Y             Z
Electronic contribution:      9.28659      -3.46240       1.36979
Nuclear contribution   :     -9.27417       3.24305      -1.41537
                        -----------------------------------------
Total Dipole Moment    :      0.01242      -0.21934      -0.04558
                        -----------------------------------------
Magnitude (a.u.)       :      0.22437
Magnitude (Debye)      :      0.57031

Dispersion correction in the Hessian             ... done   (      3.5 sec)

VIBRATIONAL FREQUENCIES
-----------------------

Scaling factor for frequencies =  1.000000000  (already applied!)

   0:         0.00 cm**-1
   1:         0.00 cm**-1
   2:         0.00 cm**-1
   3:         0.00 cm**-1
   4:         0.00 cm**-1
   5:         0.00 cm**-1
   6:        20.65 cm**-1
   7:        33.76 cm**-1
   8:        51.32 cm**-1
   9:        65.40 cm**-1
  10:        69.00 cm**-1
  11:        75.81 cm**-1
  12:        90.34 cm**-1
  13:       133.07 cm**-1
  14:       143.74 cm**-1
  15:       163.31 cm**-1
  16:       192.60 cm**-1
  17:       193.61 cm**-1
  18:       216.54 cm**-1
  19:       223.14 cm**-1
  20:       271.46 cm**-1
  21:       303.55 cm**-1
  22:       321.02 cm**-1
  23:       362.12 cm**-1
  24:       367.23 cm**-1
  25:       379.24 cm**-1
  26:       406.01 cm**-1
  27:       408.33 cm**-1
  28:       444.89 cm**-1
  29:       470.99 cm**-1
  30:       477.06 cm**-1
  31:       536.26 cm**-1
  32:       565.67 cm**-1
  33:       571.75 cm**-1
  34:       581.68 cm**-1
  35:       587.76 cm**-1
  36:       605.47 cm**-1
  37:       608.45 cm**-1
  38:       625.91 cm**-1
  39:       650.89 cm**-1
  40:       668.19 cm**-1
  41:       684.98 cm**-1
  42:       711.93 cm**-1
  43:       731.17 cm**-1
  44:       736.47 cm**-1
  45:       746.41 cm**-1
  46:       765.74 cm**-1
  47:       788.67 cm**-1
  48:       807.76 cm**-1
  49:       829.05 cm**-1
  50:       832.55 cm**-1
  51:       855.49 cm**-1
  52:       880.73 cm**-1
  53:       883.09 cm**-1
  54:       893.81 cm**-1
  55:       896.51 cm**-1
  56:       898.36 cm**-1
  57:       911.89 cm**-1
  58:       944.19 cm**-1
  59:       951.76 cm**-1
  60:       974.73 cm**-1
  61:       976.69 cm**-1
  62:       995.30 cm**-1
  63:      1017.37 cm**-1
  64:      1031.75 cm**-1
  65:      1049.68 cm**-1
  66:      1072.35 cm**-1
  67:      1079.94 cm**-1
  68:      1083.54 cm**-1
  69:      1120.94 cm**-1
  70:      1135.21 cm**-1
  71:      1142.88 cm**-1
  72:      1155.60 cm**-1
  73:      1158.90 cm**-1
  74:      1165.97 cm**-1
  75:      1184.17 cm**-1
  76:      1198.54 cm**-1
  77:      1248.62 cm**-1
  78:      1266.99 cm**-1
  79:      1280.44 cm**-1
  80:      1298.45 cm**-1
  81:      1314.06 cm**-1
  82:      1339.14 cm**-1
  83:      1343.02 cm**-1
  84:      1348.83 cm**-1
  85:      1381.58 cm**-1
  86:      1384.42 cm**-1
  87:      1428.50 cm**-1
  88:      1447.76 cm**-1
  89:      1453.06 cm**-1
  90:      1461.82 cm**-1
  91:      1471.82 cm**-1
  92:      1487.74 cm**-1
  93:      1566.83 cm**-1
  94:      1574.00 cm**-1
  95:      1578.80 cm**-1
  96:      1596.80 cm**-1
  97:      1608.65 cm**-1
  98:      2890.64 cm**-1
  99:      3031.74 cm**-1
 100:      3090.30 cm**-1
 101:      3104.99 cm**-1
 102:      3113.78 cm**-1
 103:      3119.03 cm**-1
 104:      3120.62 cm**-1
 105:      3126.14 cm**-1
 106:      3129.02 cm**-1
 107:      3132.69 cm**-1
 108:      3136.34 cm**-1
 109:      3139.26 cm**-1
 110:      3143.74 cm**-1
 111:      3156.81 cm**-1
 112:      3173.49 cm**-1
 113:      3189.89 cm**-1

IR SPECTRUM
-----------

 Mode    freq (cm**-1)   T**2         TX         TY         TZ
-------------------------------------------------------------------
   6:        20.65    0.170872  ( -0.169677  -0.375876   0.028256)
   7:        33.76    0.078583  (  0.274334   0.054333  -0.019273)
   8:        51.32    0.429677  (  0.359254  -0.200592   0.510271)
   9:        65.40    0.148079  ( -0.195855  -0.330828   0.016509)
  10:        69.00    0.386283  (  0.174230   0.391233  -0.450404)
  11:        75.81    0.149396  ( -0.284673  -0.133011  -0.225091)
  12:        90.34    0.013337  ( -0.074260  -0.007378   0.088135)
  13:       133.07    1.307097  (  1.095242  -0.323339  -0.054725)
  14:       143.74    1.176115  (  0.887442  -0.546007  -0.300730)
  15:       163.31    1.941997  (  0.199198   0.574482  -1.253909)
  16:       192.60    5.055130  (  0.634183   1.469194  -1.579371)
  17:       193.61    0.627555  ( -0.431376   0.533232  -0.396401)
  18:       216.54    0.523406  (  0.245833   0.562502   0.382836)
  19:       223.14    2.550209  ( -1.466646  -0.038106   0.630639)
  20:       271.46    2.257914  ( -0.527294   1.139956   0.824849)
  21:       303.55    1.609232  ( -0.824869   0.359253  -0.894293)
  22:       321.02   14.929005  (  3.740049   0.742275  -0.624552)
  23:       362.12    5.694457  (  1.390953   1.590610   1.108903)
  24:       367.23   10.717851  (  0.034511  -1.938666   2.637846)
  25:       379.24   10.849389  ( -2.516063  -1.739819   1.221411)
  26:       406.01    1.151849  (  0.384514  -0.939056   0.349530)
  27:       408.33    1.698936  ( -0.033940   1.232955  -0.421433)
  28:       444.89    3.252797  (  1.634681   0.139146   0.749168)
  29:       470.99   25.587231  (  1.922223   0.887737   4.593932)
  30:       477.06   14.530834  ( -3.456630   0.519186   1.520851)
  31:       536.26    0.402048  (  0.551726   0.169539  -0.262492)
  32:       565.67    0.272690  ( -0.295753   0.379211  -0.203517)
  33:       571.75    7.107302  (  0.708654  -1.644407   1.975105)
  34:       581.68    2.787548  (  1.668632  -0.034562  -0.044963)
  35:       587.76    2.418708  (  1.383818  -0.673229   0.224764)
  36:       605.47    8.668995  ( -2.361841  -1.648103   0.611933)
  37:       608.45    3.619134  (  1.808283   0.452192  -0.380484)
  38:       625.91   12.982075  ( -3.431244  -0.545471   0.954516)
  39:       650.89    7.345833  (  2.658182  -0.163819  -0.503055)
  40:       668.19    6.234178  (  0.915994  -0.944833   2.121892)
  41:       684.98   17.217949  (  1.898668  -0.637669  -3.634060)
  42:       711.93    8.764542  (  0.485184  -1.890885   2.225689)
  43:       731.17   36.766528  ( -2.800750  -1.208440   5.240420)
  44:       736.47   44.606968  (  2.898328  -3.668577   4.769508)
  45:       746.41   57.902948  (  2.530445  -4.699147   5.423819)
  46:       765.74    7.364525  (  2.290220   0.661770   1.296718)
  47:       788.67   41.743032  ( -4.925836   0.867459   4.089827)
  48:       807.76    1.834038  ( -0.921213   0.092544   0.988352)
  49:       829.05    1.737816  ( -0.595745   0.580226  -1.022859)
  50:       832.55    0.352949  ( -0.502084  -0.270420  -0.166535)
  51:       855.49   64.875264  (  4.872976   5.544764   3.222570)
  52:       880.73    1.515809  (  1.190626   0.130502  -0.284934)
  53:       883.09    0.116349  (  0.148876   0.008647  -0.306773)
  54:       893.81    3.908630  (  0.398395  -0.139755  -1.931419)
  55:       896.51    9.476963  (  0.735045   1.140244  -2.763425)
  56:       898.36   10.281672  (  1.947830  -2.077398  -1.473786)
  57:       911.89    1.264874  ( -0.453717   0.395427  -0.950080)
  58:       944.19    0.215524  ( -0.394793  -0.235905  -0.063337)
  59:       951.76    0.079913  (  0.202845   0.140021   0.138426)
  60:       974.73   65.246886  (  7.787421   0.878269  -1.957448)
  61:       976.69    0.074118  ( -0.216164  -0.145554   0.078770)
  62:       995.30   13.742307  (  2.685197   2.353588   0.996319)
  63:      1017.37    6.036206  (  1.919940   1.403848   0.615829)
  64:      1031.75    6.500358  ( -0.915278   1.369377   1.946133)
  65:      1049.68  126.567336  (-10.258069   0.753309   4.557617)
  66:      1072.35    9.053005  (  1.490785  -2.356993   1.129224)
  67:      1079.94    9.075055  ( -1.157367   2.031164   1.899981)
  68:      1083.54   22.203622  (  2.996212   3.437544   1.187277)
  69:      1120.94    1.924420  (  0.666058  -1.155738  -0.380863)
  70:      1135.21   95.468815  ( -7.280315  -5.927044  -2.708501)
  71:      1142.88   30.059815  ( -3.436400  -3.538909  -2.393134)
  72:      1155.60    0.931724  ( -0.688324   0.174136   0.653920)
  73:      1158.90    0.475480  (  0.509101   0.461214   0.059811)
  74:      1165.97   40.165821  (  4.864270   3.853637   1.286147)
  75:      1184.17   37.036638  (  0.919096  -4.064310  -4.435457)
  76:      1198.54   48.560718  (  6.121629   3.178949   0.990280)
  77:      1248.62   23.416849  ( -4.642577  -0.768633   1.128064)
  78:      1266.99  112.318535  (  8.944093  -2.178187  -5.251403)
  79:      1280.44   50.430678  (  3.527023  -3.744047  -4.896212)
  80:      1298.45    0.063867  ( -0.126264   0.117449  -0.184745)
  81:      1314.06   32.084827  ( -2.023383   3.310551   4.126864)
  82:      1339.14    6.152508  ( -1.944696  -0.641165   1.399847)
  83:      1343.02    5.054233  (  2.000935  -0.995214  -0.245034)
  84:      1348.83    6.163509  (  1.910415   0.264748  -1.563244)
  85:      1381.58   10.013753  ( -1.134187  -0.348473   2.933588)
  86:      1384.42  100.610468  ( -3.474549   7.164761   6.099523)
  87:      1428.50   72.204561  ( -8.108906  -2.538283   0.085544)
  88:      1447.76   10.928550  ( -0.946797  -3.166745   0.062055)
  89:      1453.06   19.015804  ( -1.180336  -2.399826  -3.444335)
  90:      1461.82   17.526779  ( -1.741651   2.625524   2.756820)
  91:      1471.82   52.805773  ( -5.341507  -4.161535  -2.637366)
  92:      1487.74  191.315595  (  9.961621  -4.903644  -8.248392)
  93:      1566.83    8.342917  ( -1.960773  -1.690696  -1.280559)
  94:      1574.00  366.995874  ( 17.202813  -3.078834  -7.847285)
  95:      1578.80   21.721213  (  2.681700  -2.449002  -2.920973)
  96:      1596.80   21.782769  ( -3.480456  -1.527939   2.708246)
  97:      1608.65   39.479753  ( -5.696615   1.914094   1.834276)
  98:      2890.64    4.501675  ( -0.242440  -2.023610   0.589830)
  99:      3031.74    2.882582  (  0.764464  -1.432482   0.496158)
 100:      3090.30    2.038610  ( -1.369198  -0.233827   0.330500)
 101:      3104.99    0.056004  (  0.070673  -0.076336  -0.212561)
 102:      3113.78    2.200757  (  1.127201   0.926372   0.268347)
 103:      3119.03    0.564348  (  0.400205  -0.595070   0.223777)
 104:      3120.62    1.049266  (  0.910075  -0.151558  -0.445039)
 105:      3126.14    3.239644  ( -1.626700  -0.249256  -0.728947)
 106:      3129.02    0.602305  ( -0.740702  -0.013108   0.231286)
 107:      3132.69    1.022684  (  0.652200   0.765514   0.106335)
 108:      3136.34    0.622094  (  0.144244  -0.577879  -0.517052)
 109:      3139.26    0.422069  (  0.394112   0.477391   0.197084)
 110:      3143.74    0.202022  ( -0.331898  -0.251205  -0.169593)
 111:      3156.81    0.050353  ( -0.137483  -0.111123   0.138213)
 112:      3173.49    0.291330  (  0.040488  -0.393423  -0.367299)
 113:      3189.89    1.193540  ( -1.038942  -0.204435   0.268971)

--------------------------
THERMOCHEMISTRY AT 298.15K
--------------------------

Temperature         ... 298.15 K
Pressure            ... 1.00 atm
Total Mass          ... 328.34 AMU

Throughout the following assumptions are being made:
  (1) The electronic state is orbitally nondegenerate
      but the spin degeneracy is treated
  (2) There are no thermally accessible electronically excited states
  (3) Hindered rotations indicated by low frequency modes are not
      treated as such but are treated as vibrations and this may
      cause some error
  (4) All equations used are the standard statistical mechanics
      equations for an ideal gas
  (5) All vibrations are strictly harmonic

freq.      20.65  E(vib)   ...       0.56
freq.      33.76  E(vib)   ...       0.55
freq.      51.32  E(vib)   ...       0.52
freq.      65.40  E(vib)   ...       0.50
freq.      69.00  E(vib)   ...       0.50
freq.      75.81  E(vib)   ...       0.49
freq.      90.34  E(vib)   ...       0.47
freq.     133.07  E(vib)   ...       0.42
freq.     143.74  E(vib)   ...       0.41
freq.     163.31  E(vib)   ...       0.39
freq.     192.60  E(vib)   ...       0.36
freq.     193.61  E(vib)   ...       0.36
freq.     216.54  E(vib)   ...       0.34
freq.     223.14  E(vib)   ...       0.33
freq.     271.46  E(vib)   ...       0.29
freq.     303.55  E(vib)   ...       0.26
freq.     321.02  E(vib)   ...       0.25
freq.     362.12  E(vib)   ...       0.22
freq.     367.23  E(vib)   ...       0.22
freq.     379.24  E(vib)   ...       0.21
freq.     406.01  E(vib)   ...       0.19
freq.     408.33  E(vib)   ...       0.19
freq.     444.89  E(vib)   ...       0.17
freq.     470.99  E(vib)   ...       0.15
freq.     477.06  E(vib)   ...       0.15
freq.     536.26  E(vib)   ...       0.12
freq.     565.67  E(vib)   ...       0.11
freq.     571.75  E(vib)   ...       0.11
freq.     581.68  E(vib)   ...       0.11
freq.     587.76  E(vib)   ...       0.10
freq.     605.47  E(vib)   ...       0.10
freq.     608.45  E(vib)   ...       0.10
freq.     625.91  E(vib)   ...       0.09
freq.     650.89  E(vib)   ...       0.08
freq.     668.19  E(vib)   ...       0.08
freq.     684.98  E(vib)   ...       0.07
freq.     711.93  E(vib)   ...       0.07
freq.     731.17  E(vib)   ...       0.06
freq.     736.47  E(vib)   ...       0.06
freq.     746.41  E(vib)   ...       0.06
freq.     765.74  E(vib)   ...       0.06
freq.     788.67  E(vib)   ...       0.05
freq.     807.76  E(vib)   ...       0.05
freq.     829.05  E(vib)   ...       0.04
freq.     832.55  E(vib)   ...       0.04
freq.     855.49  E(vib)   ...       0.04
freq.     880.73  E(vib)   ...       0.04
freq.     883.09  E(vib)   ...       0.04
freq.     893.81  E(vib)   ...       0.03
freq.     896.51  E(vib)   ...       0.03
freq.     898.36  E(vib)   ...       0.03
freq.     911.89  E(vib)   ...       0.03
freq.     944.19  E(vib)   ...       0.03
freq.     951.76  E(vib)   ...       0.03
freq.     974.73  E(vib)   ...       0.03
freq.     976.69  E(vib)   ...       0.03
freq.     995.30  E(vib)   ...       0.02
freq.    1017.37  E(vib)   ...       0.02
freq.    1031.75  E(vib)   ...       0.02
freq.    1049.68  E(vib)   ...       0.02
freq.    1072.35  E(vib)   ...       0.02
freq.    1079.94  E(vib)   ...       0.02
freq.    1083.54  E(vib)   ...       0.02
freq.    1120.94  E(vib)   ...       0.01
freq.    1135.21  E(vib)   ...       0.01
freq.    1142.88  E(vib)   ...       0.01
freq.    1155.60  E(vib)   ...       0.01
freq.    1158.90  E(vib)   ...       0.01
freq.    1165.97  E(vib)   ...       0.01
freq.    1184.17  E(vib)   ...       0.01
freq.    1198.54  E(vib)   ...       0.01
freq.    1248.62  E(vib)   ...       0.01
freq.    1266.99  E(vib)   ...       0.01
freq.    1280.44  E(vib)   ...       0.01
freq.    1298.45  E(vib)   ...       0.01
freq.    1314.06  E(vib)   ...       0.01
freq.    1339.14  E(vib)   ...       0.01
freq.    1343.02  E(vib)   ...       0.01
freq.    1348.83  E(vib)   ...       0.01
freq.    1381.58  E(vib)   ...       0.01
freq.    1384.42  E(vib)   ...       0.00
freq.    1428.50  E(vib)   ...       0.00
freq.    1447.76  E(vib)   ...       0.00
freq.    1453.06  E(vib)   ...       0.00
freq.    1461.82  E(vib)   ...       0.00
freq.    1471.82  E(vib)   ...       0.00
freq.    1487.74  E(vib)   ...       0.00
freq.    1566.83  E(vib)   ...       0.00
freq.    1574.00  E(vib)   ...       0.00
freq.    1578.80  E(vib)   ...       0.00
freq.    1596.80  E(vib)   ...       0.00
freq.    1608.65  E(vib)   ...       0.00
freq.    2890.64  E(vib)   ...       0.00
freq.    3031.74  E(vib)   ...       0.00
freq.    3090.30  E(vib)   ...       0.00
freq.    3104.99  E(vib)   ...       0.00
freq.    3113.78  E(vib)   ...       0.00
freq.    3119.03  E(vib)   ...       0.00
freq.    3120.62  E(vib)   ...       0.00
freq.    3126.14  E(vib)   ...       0.00
freq.    3129.02  E(vib)   ...       0.00
freq.    3132.69  E(vib)   ...       0.00
freq.    3136.34  E(vib)   ...       0.00
freq.    3139.26  E(vib)   ...       0.00
freq.    3143.74  E(vib)   ...       0.00
freq.    3156.81  E(vib)   ...       0.00
freq.    3173.49  E(vib)   ...       0.00
freq.    3189.89  E(vib)   ...       0.00

------------
INNER ENERGY
------------

The inner energy is: U= E(el) + E(ZPE) + E(vib) + E(rot) + E(trans)
    E(el)   - is the total energy from the electronic structure calculation
              = E(kin-el) + E(nuc-el) + E(el-el) + E(nuc-nuc)
    E(ZPE)  - the the zero temperature vibrational energy from the frequency calculation
    E(vib)  - the the finite temperature correction to E(ZPE) due to population
              of excited vibrational states
    E(rot)  - is the rotational thermal energy
    E(trans)- is the translational thermal energy

Summary of contributions to the inner energy U:
Electronic energy                ...  -1925.14529269 Eh
Zero point energy                ...      0.28673054 Eh     179.93 kcal/mol
Thermal vibrational correction   ...      0.01715347 Eh      10.76 kcal/mol
Thermal rotational correction    ...      0.00141627 Eh       0.89 kcal/mol
Thermal translational correction ...      0.00141627 Eh       0.89 kcal/mol
-----------------------------------------------------------------------
Total thermal energy                  -1924.83857614 Eh

Summary of corrections to the electronic energy:
(perhaps to be used in another calculation)
Total thermal correction                  0.01998602 Eh      12.54 kcal/mol
Non-thermal (ZPE) correction              0.28673054 Eh     179.93 kcal/mol
-----------------------------------------------------------------------
Total correction                          0.30671655 Eh     192.47 kcal/mol

--------
ENTHALPY
--------

Rotational constants in cm-1:     0.013217     0.006916     0.004890

                             ****ORCA TERMINATED NORMALLY****
TOTAL RUN TIME: 0 days 9 hours 4 minutes 43 seconds 208 msec
