                         Program Version 4.2.1 -  RELEASE  -
|  1> #
|  2> # ORCA calc attempt 1 :-)
|  3> #
|  4> ! BP86 D3BJ RIJCOSX def2-TZVP def2/J Grid6 FinalGrid6 MORead Freq
|  5> %moinp "IM1_2F-1_Tight.ges"
|  6> * xyz 1 4
|  7>   Cr  0.33635983472405     -2.02176541705681     -1.33396407319528
|  8>   O   -1.50173695506261     -2.07216026842456     -0.34992253832519
|  9>   N   0.47430263220878     -0.45278933123217     -0.14142495627620
| 10>   N   2.24603596299312     -1.62487024304410     -1.61741337087192
| 11>   C   -2.59094859824813     -2.89533710761570     -0.74550676416799
| 12>   C   -2.70830764269911     -4.14320085454259     -0.14547646742878
| 13>   C   -3.45418718247453     -2.45200142923842     -1.74254152152185
| 14>   C   -3.72606242381215     -4.99610894066112     -0.58418864677821
| 15>   H   -2.02886992522242     -4.43068734175448      0.65704455651104
| 16>   C   -4.46907847002685     -3.31366714210964     -2.16549248371499
| 17>   H   -3.33696330599666     -1.45615990766070     -2.16823235230793
| 18>   C   -4.60008239571033     -4.58331746672599     -1.59314944797368
| 19>   H   -3.83747054987622     -5.97997377208511     -0.12887390814015
| 20>   H   -5.39241938651055     -5.25093699519338     -1.93099549127423
| 21>   H   -5.15782883397625     -2.98998490567525     -2.94569784482181
| 22>   C   -1.76743340234835     -0.92091145068577      0.43723946739613
| 23>   C   -0.66869048568930     -0.05216682064652      0.55601672258805
| 24>   C   -0.81965062683894      1.10183976231287      1.33761837178457
| 25>   C   -2.97957720946295     -0.69073999311843      1.06397222724978
| 26>   C   -3.10773932775664      0.46673751508400      1.84081008655543
| 27>   H   -3.80587217970097     -1.39112368629150      0.95322952054367
| 28>   C   -2.03533931116487      1.35365980552307      1.97319879630203
| 29>   H   0.00637796765931      1.80478525806138      1.44186334232090
| 30>   H   -4.05323451144389      0.67076658144570      2.34168236444311
| 31>   H   -2.14706267110751      2.25439780766911      2.57582586385026
| 32>   C   1.67819733203258      0.12059205839230     -0.11728034092266
| 33>   C   2.65673698957827     -0.48104986297914     -0.91358272741262
| 34>   C   3.31468415923717     -2.04979815236881     -2.33283505275113
| 35>   C   4.42712756568596     -1.21116934930578     -2.10377155234328
| 36>   H   3.25449957086479     -2.92002100425585     -2.98221659836989
| 37>   C   4.01604980340038     -0.21990706472572     -1.20748965922343
| 38>   H   4.61408439634042      0.59277502744830     -0.80578689598285
| 39>   H   5.41108703211857     -1.32718782239555     -2.54677179917943
| 40>   H   1.88351582178475      1.00119565460029      0.49605836284001
| 41>   C   -0.34107142268750     -1.06284178617407     -2.98239651773086
| 42>   H   0.42717404586188     -1.09516998376861     -3.76502348404421
| 43>   H   -0.54449635074618     -0.01978789501534     -2.70162725522902
| 44>   H   -1.26445086923020     -1.54892377663286     -3.32803608269079
| 45>   C   0.61029117451763     -4.37433234540221     -1.62245866198275
| 46>   C   -0.03070280280890     -4.04971610418394     -2.77085543776407
| 47>   H   1.69688992262005     -4.46514566076679     -1.57351920274594
| 48>   H   0.04961154324442     -4.69745306811383     -0.74057301983485
| 49>   H   0.51280192031145     -3.82939901685283     -3.69054321961393
| 50>   H   -1.12049083458148     -4.06614350383331     -2.83515230776500
| 51> *
| 52>
| 53>                          ****END OF INPUT****

CARTESIAN COORDINATES (ANGSTROEM)
---------------------------------
  Cr     0.336360   -2.021765   -1.333964
  O     -1.501737   -2.072160   -0.349923
  N      0.474303   -0.452789   -0.141425
  N      2.246036   -1.624870   -1.617413
  C     -2.590949   -2.895337   -0.745507
  C     -2.708308   -4.143201   -0.145476
  C     -3.454187   -2.452001   -1.742542
  C     -3.726062   -4.996109   -0.584189
  H     -2.028870   -4.430687    0.657045
  C     -4.469078   -3.313667   -2.165492
  H     -3.336963   -1.456160   -2.168232
  C     -4.600082   -4.583317   -1.593149
  H     -3.837471   -5.979974   -0.128874
  H     -5.392419   -5.250937   -1.930995
  H     -5.157829   -2.989985   -2.945698
  C     -1.767433   -0.920911    0.437239
  C     -0.668690   -0.052167    0.556017
  C     -0.819651    1.101840    1.337618
  C     -2.979577   -0.690740    1.063972
  C     -3.107739    0.466738    1.840810
  H     -3.805872   -1.391124    0.953230
  C     -2.035339    1.353660    1.973199
  H      0.006378    1.804785    1.441863
  H     -4.053235    0.670767    2.341682
  H     -2.147063    2.254398    2.575826
  C      1.678197    0.120592   -0.117280
  C      2.656737   -0.481050   -0.913583
  C      3.314684   -2.049798   -2.332835
  C      4.427128   -1.211169   -2.103772
  H      3.254500   -2.920021   -2.982217
  C      4.016050   -0.219907   -1.207490
  H      4.614084    0.592775   -0.805787
  H      5.411087   -1.327188   -2.546772
  H      1.883516    1.001196    0.496058
  C     -0.341071   -1.062842   -2.982397
  H      0.427174   -1.095170   -3.765023
  H     -0.544496   -0.019788   -2.701627
  H     -1.264451   -1.548924   -3.328036
  C      0.610291   -4.374332   -1.622459
  C     -0.030703   -4.049716   -2.770855
  H      1.696890   -4.465146   -1.573519
  H      0.049612   -4.697453   -0.740573
  H      0.512802   -3.829399   -3.690543
  H     -1.120491   -4.066144   -2.835152

 Total Charge           Charge          ....    1
 Multiplicity           Mult            ....    4
 Number of Electrons    NEL             ....  185
 Basis Dimension        Dim             ....  878

ORBITAL ENERGIES
----------------
                 SPIN UP ORBITALS
  NO   OCC          E(Eh)            E(eV)
   0   1.0000    -214.697846     -5842.2254
   1   1.0000     -24.431177      -664.8061
   2   1.0000     -20.796190      -565.8931
   3   1.0000     -20.794835      -565.8562
   4   1.0000     -20.791402      -565.7628
   5   1.0000     -18.984830      -516.6035
   6   1.0000     -14.160915      -385.3381
   7   1.0000     -14.139662      -384.7598
   8   1.0000     -10.096139      -274.7299
   9   1.0000     -10.094954      -274.6977
  10   1.0000     -10.084908      -274.4243
  11   1.0000     -10.070583      -274.0345
  12   1.0000     -10.057744      -273.6851
  13   1.0000     -10.054629      -273.6004
  14   1.0000     -10.052698      -273.5478
  15   1.0000     -10.047458      -273.4052
  16   1.0000     -10.035784      -273.0876
  17   1.0000     -10.034592      -273.0551
  18   1.0000     -10.029618      -272.9198
  19   1.0000     -10.029323      -272.9118
  20   1.0000     -10.028507      -272.8895
  21   1.0000     -10.027686      -272.8672
  22   1.0000     -10.024540      -272.7816
  23   1.0000     -10.022002      -272.7125
  24   1.0000     -10.021043      -272.6864
  25   1.0000     -10.018551      -272.6186
  26   1.0000     -10.009951      -272.3846
  27   1.0000      -9.993279      -271.9309
  28   1.0000      -2.909196       -79.1633
  29   1.0000      -1.903710       -51.8026
  30   1.0000      -1.901451       -51.7411
  31   1.0000      -1.892676       -51.5023
  32   1.0000      -1.145910       -31.1818
  33   1.0000      -1.015647       -27.6372
  34   1.0000      -0.988163       -26.8893
  35   1.0000      -0.917485       -24.9660
  36   1.0000      -0.901956       -24.5435
  37   1.0000      -0.852514       -23.1981
  38   1.0000      -0.838724       -22.8228
  39   1.0000      -0.820636       -22.3306
  40   1.0000      -0.812671       -22.1139
  41   1.0000      -0.812028       -22.0964
  42   1.0000      -0.795641       -21.6505
  43   1.0000      -0.775766       -21.1097
  44   1.0000      -0.724458       -19.7135
  45   1.0000      -0.719223       -19.5711
  46   1.0000      -0.711451       -19.3596
  47   1.0000      -0.686551       -18.6820
  48   1.0000      -0.677299       -18.4302
  49   1.0000      -0.668450       -18.1895
  50   1.0000      -0.657788       -17.8993
  51   1.0000      -0.645757       -17.5719
  52   1.0000      -0.624089       -16.9823
  53   1.0000      -0.611060       -16.6278
  54   1.0000      -0.602829       -16.4038
  55   1.0000      -0.588888       -16.0244
  56   1.0000      -0.582694       -15.8559
  57   1.0000      -0.574966       -15.6456
  58   1.0000      -0.567067       -15.4307
  59   1.0000      -0.560916       -15.2633
  60   1.0000      -0.534004       -14.5310
  61   1.0000      -0.530936       -14.4475
  62   1.0000      -0.527376       -14.3506
  63   1.0000      -0.521470       -14.1899
  64   1.0000      -0.518957       -14.1215
  65   1.0000      -0.516036       -14.0421
  66   1.0000      -0.511067       -13.9068
  67   1.0000      -0.499496       -13.5920
  68   1.0000      -0.498940       -13.5769
  69   1.0000      -0.474760       -12.9189
  70   1.0000      -0.473142       -12.8749
  71   1.0000      -0.471383       -12.8270
  72   1.0000      -0.468513       -12.7489
  73   1.0000      -0.464553       -12.6411
  74   1.0000      -0.461911       -12.5692
  75   1.0000      -0.460124       -12.5206
  76   1.0000      -0.458868       -12.4864
  77   1.0000      -0.447222       -12.1695
  78   1.0000      -0.442737       -12.0475
  79   1.0000      -0.440512       -11.9869
  80   1.0000      -0.435866       -11.8605
  81   1.0000      -0.430862       -11.7243
  82   1.0000      -0.423704       -11.5296
  83   1.0000      -0.417949       -11.3730
  84   1.0000      -0.374264       -10.1842
  85   1.0000      -0.366125        -9.9628
  86   1.0000      -0.363659        -9.8957
  87   1.0000      -0.362353        -9.8601
  88   1.0000      -0.358636        -9.7590
  89   1.0000      -0.345231        -9.3942
  90   1.0000      -0.338242        -9.2040
  91   1.0000      -0.332782        -9.0555
  92   1.0000      -0.316157        -8.6031
  93   1.0000      -0.300565        -8.1788
  94   0.0000      -0.248480        -6.7615
  95   0.0000      -0.219026        -5.9600
  96   0.0000      -0.209893        -5.7115
  97   0.0000      -0.177534        -4.8309
  98   0.0000      -0.175974        -4.7885

                 SPIN DOWN ORBITALS
  NO   OCC          E(Eh)            E(eV)
   0   1.0000    -214.697543     -5842.2172
   1   1.0000     -24.391129      -663.7164
   2   1.0000     -20.766476      -565.0845
   3   1.0000     -20.764060      -565.0188
   4   1.0000     -20.760100      -564.9111
   5   1.0000     -18.984839      -516.6037
   6   1.0000     -14.162030      -385.3684
   7   1.0000     -14.140633      -384.7862
   8   1.0000     -10.096042      -274.7273
   9   1.0000     -10.094965      -274.6980
  10   1.0000     -10.084448      -274.4118
  11   1.0000     -10.070460      -274.0312
  12   1.0000     -10.056655      -273.6555
  13   1.0000     -10.055071      -273.6124
  14   1.0000     -10.052403      -273.5398
  15   1.0000     -10.047054      -273.3942
  16   1.0000     -10.035748      -273.0866
  17   1.0000     -10.034537      -273.0536
  18   1.0000     -10.029632      -272.9202
  19   1.0000     -10.029334      -272.9120
  20   1.0000     -10.028482      -272.8889
  21   1.0000     -10.027758      -272.8692
  22   1.0000     -10.024492      -272.7803
  23   1.0000     -10.021867      -272.7089
  24   1.0000     -10.021079      -272.6874
  25   1.0000     -10.018513      -272.6176
  26   1.0000     -10.009664      -272.3768
  27   1.0000      -9.995773      -271.9988
  28   1.0000      -2.802324       -76.2551
  29   1.0000      -1.800631       -48.9977
  30   1.0000      -1.795265       -48.8516
  31   1.0000      -1.786137       -48.6033
  32   1.0000      -1.145511       -31.1709
  33   1.0000      -1.015531       -27.6340
  34   1.0000      -0.988415       -26.8961
  35   1.0000      -0.917393       -24.9635
  36   1.0000      -0.901896       -24.5418
  37   1.0000      -0.851154       -23.1611
  38   1.0000      -0.838350       -22.8127
  39   1.0000      -0.820488       -22.3266
  40   1.0000      -0.812257       -22.1026
  41   1.0000      -0.811954       -22.0944
  42   1.0000      -0.795577       -21.6487
  43   1.0000      -0.775567       -21.1043
  44   1.0000      -0.725068       -19.7301
  45   1.0000      -0.720993       -19.6192
  46   1.0000      -0.711192       -19.3525
  47   1.0000      -0.686434       -18.6788
  48   1.0000      -0.675458       -18.3801
  49   1.0000      -0.668142       -18.1811
  50   1.0000      -0.657540       -17.8926
  51   1.0000      -0.644934       -17.5495
  52   1.0000      -0.623976       -16.9793
  53   1.0000      -0.610498       -16.6125
  54   1.0000      -0.601650       -16.3717
  55   1.0000      -0.588376       -16.0105
  56   1.0000      -0.581718       -15.8293
  57   1.0000      -0.574521       -15.6335
  58   1.0000      -0.566340       -15.4109
  59   1.0000      -0.560330       -15.2474
  60   1.0000      -0.533478       -14.5167
  61   1.0000      -0.530356       -14.4317
  62   1.0000      -0.526629       -14.3303
  63   1.0000      -0.520656       -14.1678
  64   1.0000      -0.518546       -14.1104
  65   1.0000      -0.515223       -14.0199
  66   1.0000      -0.510441       -13.8898
  67   1.0000      -0.498256       -13.5582
  68   1.0000      -0.496831       -13.5195
  69   1.0000      -0.472531       -12.8582
  70   1.0000      -0.471930       -12.8419
  71   1.0000      -0.470089       -12.7918
  72   1.0000      -0.467562       -12.7230
  73   1.0000      -0.463031       -12.5997
  74   1.0000      -0.460789       -12.5387
  75   1.0000      -0.459155       -12.4942
  76   1.0000      -0.458079       -12.4650
  77   1.0000      -0.447049       -12.1648
  78   1.0000      -0.439032       -11.9467
  79   1.0000      -0.437774       -11.9124
  80   1.0000      -0.434150       -11.8138
  81   1.0000      -0.426427       -11.6037
  82   1.0000      -0.421995       -11.4831
  83   1.0000      -0.412425       -11.2227
  84   1.0000      -0.365837        -9.9549
  85   1.0000      -0.362041        -9.8516
  86   1.0000      -0.361715        -9.8428
  87   1.0000      -0.360000        -9.7961
  88   1.0000      -0.347977        -9.4689
  89   1.0000      -0.343960        -9.3596
  90   1.0000      -0.311522        -8.4769
  91   0.0000      -0.249813        -6.7978
  92   0.0000      -0.236025        -6.4226
  93   0.0000      -0.223844        -6.0911
  94   0.0000      -0.208144        -5.6639
  95   0.0000      -0.187303        -5.0968

MULLIKEN ATOMIC CHARGES AND SPIN POPULATIONS
--------------------------------------------
   0 Cr:    0.355162    3.292989
   1 O :   -0.284269   -0.023124
   2 N :   -0.124816   -0.087223
   3 N :   -0.107727   -0.101047
   4 C :    0.230991   -0.021667
   5 C :   -0.211070    0.009928
   6 C :   -0.239136    0.009074
   7 C :   -0.079574   -0.001503
   8 H :    0.158080    0.000066
   9 C :   -0.076687   -0.000856
  10 H :    0.174142   -0.000513
  11 C :   -0.107242    0.003586
  12 H :    0.147061    0.000005
  13 H :    0.147071   -0.000217
  14 H :    0.148190    0.000099
  15 C :    0.299193   -0.004540
  16 C :    0.093611    0.005076
  17 C :   -0.187767   -0.004139
  18 C :   -0.167476    0.001339
  19 C :   -0.111996   -0.002740
  20 H :    0.169411   -0.000121
  21 C :   -0.129108    0.002693
  22 H :    0.132825    0.000337
  23 H :    0.143968    0.000056
  24 H :    0.141203   -0.000319
  25 C :   -0.077264    0.033981
  26 C :    0.253602    0.000307
  27 C :   -0.171639    0.026209
  28 C :   -0.073184    0.019668
  29 H :    0.152054   -0.000576
  30 C :   -0.234020    0.011297
  31 H :    0.146383   -0.000690
  32 H :    0.150419   -0.001638
  33 H :    0.144765   -0.002886
  34 C :   -0.551384   -0.248798
  35 H :    0.161671    0.018874
  36 H :    0.153944    0.026485
  37 H :    0.153078    0.018513
  38 C :   -0.260226   -0.055709
  39 C :   -0.168127    0.068732
  40 H :    0.179959    0.004972
  41 H :    0.164873    0.005678
  42 H :    0.161150   -0.001266
  43 H :    0.199905   -0.000391
Sum of atomic charges         :    1.0000000

LOEWDIN ATOMIC CHARGES AND SPIN POPULATIONS
-------------------------------------------
   0 Cr:    0.104634    2.916371
   1 O :    0.359977    0.007821
   2 N :    0.193907   -0.018745
   3 N :    0.177720   -0.008765
   4 C :   -0.222934    0.004005
   5 C :   -0.108638    0.001905
   6 C :   -0.105621    0.002654
   7 C :   -0.109952   -0.000174
   8 H :    0.162378    0.000014
   9 C :   -0.109220   -0.000052
  10 H :    0.166939    0.000053
  11 C :   -0.111391    0.002352
  12 H :    0.158804    0.000014
  13 H :    0.158720   -0.000004
  14 H :    0.159207    0.000055
  15 C :   -0.159347    0.000360
  16 C :   -0.172454    0.001256
  17 C :   -0.090774   -0.002479
  18 C :   -0.103703    0.001094
  19 C :   -0.110893   -0.001517
  20 H :    0.167454    0.000010
  21 C :   -0.117090    0.001510
  22 H :    0.155590    0.000045
  23 H :    0.158611   -0.000046
  24 H :    0.158729   -0.000126
  25 C :   -0.100972    0.020088
  26 C :   -0.212717    0.017143
  27 C :   -0.161735    0.012845
  28 C :   -0.140126    0.018265
  29 H :    0.147101   -0.000295
  30 C :   -0.080913    0.011374
  31 H :    0.153515    0.000037
  32 H :    0.150787   -0.000217
  33 H :    0.159317   -0.001276
  34 C :   -0.365230   -0.102289
  35 H :    0.131670    0.007877
  36 H :    0.136828    0.012326
  37 H :    0.125425    0.008158
  38 C :   -0.182272    0.008454
  39 C :   -0.136589    0.071445
  40 H :    0.153803    0.002831
  41 H :    0.152714    0.003057
  42 H :    0.153107    0.001087
  43 H :    0.155634    0.001479

  Mayer bond orders larger than 0.100000
B(  0-Cr,  1-O ) :   0.4164 B(  0-Cr,  2-N ) :   0.7368 B(  0-Cr,  3-N ) :   0.7858
B(  0-Cr, 34-C ) :   0.9999 B(  0-Cr, 38-C ) :   0.3504 B(  0-Cr, 39-C ) :   0.2914
B(  1-O ,  4-C ) :   0.6154 B(  1-O , 15-C ) :   0.7359 B(  1-O , 16-C ) :   0.1527
B(  2-N , 16-C ) :   1.0000 B(  2-N , 25-C ) :   1.4098 B(  3-N , 26-C ) :   0.9769
B(  3-N , 27-C ) :   1.3297 B(  4-C ,  5-C ) :   1.4097 B(  4-C ,  6-C ) :   1.3978
B(  5-C ,  7-C ) :   1.3871 B(  5-C ,  8-H ) :   0.9552 B(  6-C ,  9-C ) :   1.3902
B(  6-C , 10-H ) :   0.9532 B(  7-C , 11-C ) :   1.3950 B(  7-C , 12-H ) :   0.9558
B(  9-C , 11-C ) :   1.3853 B(  9-C , 14-H ) :   0.9564 B( 11-C , 13-H ) :   0.9594
B( 15-C , 16-C ) :   1.3759 B( 15-C , 18-C ) :   1.4170 B( 16-C , 17-C ) :   1.3131
B( 17-C , 21-C ) :   1.4215 B( 17-C , 22-H ) :   0.9570 B( 18-C , 19-C ) :   1.3786
B( 18-C , 20-H ) :   0.9313 B( 19-C , 21-C ) :   1.3989 B( 19-C , 23-H ) :   0.9578
B( 21-C , 24-H ) :   0.9596 B( 25-C , 26-C ) :   1.3501 B( 25-C , 33-H ) :   0.9221
B( 26-C , 30-C ) :   1.2508 B( 27-C , 28-C ) :   1.3635 B( 27-C , 29-H ) :   0.9482
B( 28-C , 30-C ) :   1.4511 B( 28-C , 32-H ) :   0.9617 B( 30-C , 31-H ) :   0.9750
B( 34-C , 35-H ) :   0.9446 B( 34-C , 36-H ) :   0.9374 B( 34-C , 37-H ) :   0.9291
B( 38-C , 39-C ) :   1.5618 B( 38-C , 40-H ) :   0.9425 B( 38-C , 41-H ) :   0.9378
B( 39-C , 42-H ) :   0.9477 B( 39-C , 43-H ) :   0.9433

Dispersion correction           -0.112627687
FINAL SINGLE POINT ENERGY     -2003.803901603165

DIPOLE MOMENT
-------------
                                X             Y             Z
Electronic contribution:      7.38165       2.34886       4.94420
Nuclear contribution   :     -7.46110      -2.99775      -5.02024
                        -----------------------------------------
Total Dipole Moment    :     -0.07945      -0.64889      -0.07605
                        -----------------------------------------
Magnitude (a.u.)       :      0.65815
Magnitude (Debye)      :      1.67288

Dispersion correction in the Hessian             ... done   (      4.3 sec)

VIBRATIONAL FREQUENCIES
-----------------------

Scaling factor for frequencies =  1.000000000  (already applied!)

   0:         0.00 cm**-1
   1:         0.00 cm**-1
   2:         0.00 cm**-1
   3:         0.00 cm**-1
   4:         0.00 cm**-1
   5:         0.00 cm**-1
   6:        20.02 cm**-1
   7:        42.05 cm**-1
   8:        55.25 cm**-1
   9:        57.78 cm**-1
  10:        66.85 cm**-1
  11:        72.85 cm**-1
  12:        82.59 cm**-1
  13:        97.14 cm**-1
  14:       116.38 cm**-1
  15:       131.72 cm**-1
  16:       138.15 cm**-1
  17:       153.18 cm**-1
  18:       167.94 cm**-1
  19:       177.85 cm**-1
  20:       202.92 cm**-1
  21:       216.26 cm**-1
  22:       221.52 cm**-1
  23:       229.15 cm**-1
  24:       242.37 cm**-1
  25:       275.82 cm**-1
  26:       308.58 cm**-1
  27:       312.97 cm**-1
  28:       366.45 cm**-1
  29:       374.36 cm**-1
  30:       379.82 cm**-1
  31:       390.32 cm**-1
  32:       405.04 cm**-1
  33:       411.78 cm**-1
  34:       448.94 cm**-1
  35:       478.40 cm**-1
  36:       512.14 cm**-1
  37:       540.48 cm**-1
  38:       559.51 cm**-1
  39:       575.59 cm**-1
  40:       581.98 cm**-1
  41:       587.44 cm**-1
  42:       609.53 cm**-1
  43:       617.70 cm**-1
  44:       621.89 cm**-1
  45:       644.79 cm**-1
  46:       668.73 cm**-1
  47:       691.14 cm**-1
  48:       714.11 cm**-1
  49:       730.37 cm**-1
  50:       736.09 cm**-1
  51:       742.74 cm**-1
  52:       769.55 cm**-1
  53:       796.34 cm**-1
  54:       802.65 cm**-1
  55:       816.17 cm**-1
  56:       821.45 cm**-1
  57:       830.91 cm**-1
  58:       855.50 cm**-1
  59:       875.54 cm**-1
  60:       882.41 cm**-1
  61:       895.62 cm**-1
  62:       904.76 cm**-1
  63:       905.24 cm**-1
  64:       908.89 cm**-1
  65:       937.47 cm**-1
  66:       948.69 cm**-1
  67:       949.34 cm**-1
  68:       977.85 cm**-1
  69:       979.14 cm**-1
  70:       979.89 cm**-1
  71:       996.86 cm**-1
  72:      1011.11 cm**-1
  73:      1017.31 cm**-1
  74:      1033.49 cm**-1
  75:      1047.83 cm**-1
  76:      1069.90 cm**-1
  77:      1082.59 cm**-1
  78:      1085.30 cm**-1
  79:      1123.61 cm**-1
  80:      1140.01 cm**-1
  81:      1142.67 cm**-1
  82:      1155.79 cm**-1
  83:      1158.48 cm**-1
  84:      1167.12 cm**-1
  85:      1181.21 cm**-1
  86:      1200.97 cm**-1
  87:      1202.41 cm**-1
  88:      1249.63 cm**-1
  89:      1268.65 cm**-1
  90:      1281.71 cm**-1
  91:      1296.12 cm**-1
  92:      1313.19 cm**-1
  93:      1314.60 cm**-1
  94:      1342.62 cm**-1
  95:      1348.33 cm**-1
  96:      1380.27 cm**-1
  97:      1385.25 cm**-1
  98:      1390.50 cm**-1
  99:      1424.57 cm**-1
 100:      1432.50 cm**-1
 101:      1447.46 cm**-1
 102:      1451.42 cm**-1
 103:      1460.98 cm**-1
 104:      1473.93 cm**-1
 105:      1492.80 cm**-1
 106:      1567.03 cm**-1
 107:      1572.88 cm**-1
 108:      1577.32 cm**-1
 109:      1580.31 cm**-1
 110:      1597.04 cm**-1
 111:      1607.95 cm**-1
 112:      2954.59 cm**-1
 113:      3047.49 cm**-1
 114:      3051.32 cm**-1
 115:      3064.12 cm**-1
 116:      3067.67 cm**-1
 117:      3098.52 cm**-1
 118:      3114.79 cm**-1
 119:      3119.07 cm**-1
 120:      3120.34 cm**-1
 121:      3127.11 cm**-1
 122:      3127.77 cm**-1
 123:      3132.59 cm**-1
 124:      3133.92 cm**-1
 125:      3135.53 cm**-1
 126:      3139.07 cm**-1
 127:      3143.16 cm**-1
 128:      3152.38 cm**-1
 129:      3159.98 cm**-1
 130:      3172.60 cm**-1
 131:      3188.74 cm**-1

IR SPECTRUM
-----------

 Mode    freq (cm**-1)   T**2         TX         TY         TZ
-------------------------------------------------------------------
   6:        20.02    0.157824  (  0.247322   0.310429   0.017016)
   7:        42.05    0.212656  ( -0.016045   0.282560  -0.364085)
   8:        55.25    0.073644  ( -0.162988  -0.059515  -0.208655)
   9:        57.78    0.494486  (  0.057383   0.398191  -0.576747)
  10:        66.85    0.323797  ( -0.287937   0.055941  -0.487606)
  11:        72.85    0.796225  ( -0.641150   0.158028  -0.600149)
  12:        82.59    0.177375  (  0.378356   0.141280  -0.119421)
  13:        97.14    0.108356  ( -0.083966  -0.300392  -0.105217)
  14:       116.38    0.018993  ( -0.125077  -0.057839   0.001996)
  15:       131.72    1.329002  ( -0.892031   0.262999   0.681260)
  16:       138.15    0.200086  (  0.335434   0.189405   0.227368)
  17:       153.18    1.368827  ( -1.045814   0.443008   0.280794)
  18:       167.94    0.759804  ( -0.125355  -0.252536   0.824813)
  19:       177.85    3.414954  ( -0.168763  -1.767253   0.513119)
  20:       202.92    2.471636  (  0.193375   0.826138  -1.323532)
  21:       216.26    0.596751  ( -0.331398  -0.446041  -0.536632)
  22:       221.52    0.420707  (  0.405866  -0.199132  -0.465109)
  23:       229.15    2.564859  ( -1.497145   0.124894   0.554813)
  24:       242.37    2.755666  (  0.645557   0.575152   1.417082)
  25:       275.82    1.187656  ( -0.879777   0.554545   0.325772)
  26:       308.58    9.158201  (  2.923588   0.186636  -0.758947)
  27:       312.97    2.533009  (  0.750205  -0.606587   1.265802)
  28:       366.45    3.995239  (  0.505709   0.957528   1.680071)
  29:       374.36    2.541392  ( -0.429445   0.056452  -1.534204)
  30:       379.82   14.384747  ( -2.256005  -2.926889   0.853528)
  31:       390.32    3.740361  (  1.512405   0.223591  -1.184482)
  32:       405.04    3.592460  ( -0.197284   1.654670  -0.903109)
  33:       411.78    0.388459  ( -0.119308   0.529024  -0.307178)
  34:       448.94    4.567834  (  1.772775   0.335103   1.145779)
  35:       478.40   17.529040  ( -3.199210   1.114297   2.460170)
  36:       512.14    4.250330  ( -1.440319   0.364739  -1.429257)
  37:       540.48    0.028715  (  0.131960  -0.092079   0.053134)
  38:       559.51    0.207095  ( -0.138922  -0.430677  -0.048096)
  39:       575.59    5.840858  (  0.608774  -1.504716   1.790553)
  40:       581.98    5.722116  (  1.948341   1.324658   0.413963)
  41:       587.44    3.662672  ( -1.060367   1.389625   0.779254)
  42:       609.53    0.347928  ( -0.575334   0.016911  -0.128970)
  43:       617.70    6.997789  (  2.568720   0.297206  -0.557796)
  44:       621.89   16.007792  ( -3.539665  -1.846621   0.261832)
  45:       644.79    3.798789  (  1.804039   0.736761  -0.037631)
  46:       668.73    6.432025  (  0.945978  -0.873680   2.184910)
  47:       691.14   21.910926  ( -2.789718   1.987578   3.190288)
  48:       714.11   12.108131  ( -1.027623   1.793919  -2.798924)
  49:       730.37   23.283742  (  3.432333   0.305006  -3.377840)
  50:       736.09   38.678079  ( -2.141373   3.075796  -4.963072)
  51:       742.74   58.251727  (  2.368628  -4.359784   5.799450)
  52:       769.55    7.858872  (  2.348029   1.426988   0.556181)
  53:       796.34   44.049422  ( -4.776965   2.290478   3.997967)
  54:       802.65    2.081918  (  1.415488  -0.034517  -0.277706)
  55:       816.17    0.526240  ( -0.167661  -0.051465  -0.703904)
  56:       821.45    0.727486  (  0.522337  -0.306238   0.600723)
  57:       830.91    0.083422  ( -0.178318   0.038604  -0.223907)
  58:       855.50   58.398228  ( -4.318542  -5.743261  -2.600649)
  59:       875.54    0.070021  ( -0.191070   0.182974   0.005795)
  60:       882.41    2.264588  ( -1.428039  -0.437556   0.183952)
  61:       895.62   13.817391  ( -1.540263   2.084706   2.664391)
  62:       904.76    3.694892  (  1.052182  -1.601744   0.149073)
  63:       905.24    9.291402  ( -1.814018   0.729357   2.338542)
  64:       908.89    5.451042  (  0.917405  -1.418182   1.611884)
  65:       937.47    8.467371  ( -0.214500   1.749215   2.315514)
  66:       948.69    0.028105  ( -0.083190  -0.141876  -0.032485)
  67:       949.34    0.092817  (  0.118966  -0.273663  -0.061423)
  68:       977.85   28.798000  (  2.159920   4.761563   1.208414)
  69:       979.14    6.733874  ( -2.478425  -0.626291   0.446143)
  70:       979.89   52.439498  ( -6.689072   1.416630   2.385157)
  71:       996.86   11.279878  ( -2.236865  -2.378125  -0.787929)
  72:      1011.11    0.907587  (  0.218275  -0.874618  -0.308199)
  73:      1017.31    6.969090  ( -1.985321  -1.670176  -0.487959)
  74:      1033.49    8.304285  (  1.245866  -1.739057  -1.930747)
  75:      1047.83  120.856832  ( 10.321573   0.004856  -3.784435)
  76:      1069.90    8.783692  (  1.144791  -2.098353   1.752159)
  77:      1082.59    6.848788  ( -0.606594   2.032622   1.532736)
  78:      1085.30   20.646223  ( -2.707063  -3.423154  -1.264932)
  79:      1123.61    1.606302  ( -0.783164   0.698284   0.710884)
  80:      1140.01   72.991947  ( -6.079939  -5.756875  -1.698433)
  81:      1142.67   26.932704  ( -2.659462  -3.941921  -2.078755)
  82:      1155.79    0.585042  (  0.601707  -0.180798  -0.436237)
  83:      1158.48    0.437289  ( -0.497688  -0.408478  -0.150803)
  84:      1167.12   50.803176  (  5.268539   4.667187   1.123851)
  85:      1181.21   31.513788  ( -1.684666   3.853532   3.718330)
  86:      1200.97    7.426562  (  2.104079   1.730874  -0.059074)
  87:      1202.41   43.221188  (  4.820955   4.113203   1.749612)
  88:      1249.63   20.421776  ( -4.204292  -1.635643   0.265291)
  89:      1268.65  113.412317  (  9.556835  -1.494164  -4.454963)
  90:      1281.71   64.374953  ( -4.430973   4.466241   4.979370)
  91:      1296.12    0.082230  ( -0.037025   0.190769  -0.210870)
  92:      1313.19   23.159453  ( -2.445315   2.557696   3.261607)
  93:      1314.60    7.239406  (  1.844636   1.835717   0.683277)
  94:      1342.62    3.609777  (  1.715301  -0.706024   0.411156)
  95:      1348.33   10.126381  ( -2.809634  -0.200780   1.480549)
  96:      1380.27   23.282272  (  3.321026  -2.206576  -2.717367)
  97:      1385.25   69.070018  (  3.090222  -5.615798  -5.289930)
  98:      1390.50    2.073998  ( -1.133530  -0.664404   0.589641)
  99:      1424.57   13.889941  (  1.999892  -0.844777   3.029311)
 100:      1432.50   61.228401  (  6.635101   4.053417   0.879573)
 101:      1447.46    7.743684  ( -0.162048  -2.513000   1.184169)
 102:      1451.42   19.067324  (  0.979532   3.114685   2.899410)
 103:      1460.98   18.444704  (  1.568322  -3.093819  -2.532459)
 104:      1473.93   50.151608  ( -5.204344  -4.456543  -1.790430)
 105:      1492.80  187.119355  (-11.024843   4.177206   6.937085)
 106:      1567.03    7.151980  (  1.829400   1.777071   0.804545)
 107:      1572.88  348.932342  ( 17.430421  -1.604377  -6.522174)
 108:      1577.32    7.240333  (  0.721648   2.575625  -0.292770)
 109:      1580.31    3.818336  (  0.624312   1.524767   1.050551)
 110:      1597.04   13.881438  ( -2.044258  -1.923698   2.449864)
 111:      1607.95   40.473634  ( -6.090052   0.725301   1.690810)
 112:      2954.59    2.430291  ( -0.950108   0.335556  -1.189532)
 113:      3047.49    1.538649  ( -0.590439  -0.928107  -0.573279)
 114:      3051.32    6.493993  ( -1.277358  -2.098616  -0.676875)
 115:      3064.12    2.736300  (  0.905428   1.356995  -0.273979)
 116:      3067.67    4.311551  (  1.780448   0.140134  -1.059206)
 117:      3098.52    1.171368  (  0.211278   0.790676   0.708210)
 118:      3114.79    1.328263  ( -0.945663  -0.656454  -0.055255)
 119:      3119.07    1.403046  (  1.093408  -0.161406  -0.425974)
 120:      3120.34    1.201729  (  0.331404   0.883734  -0.557597)
 121:      3127.11    3.351306  (  1.581362   0.439891   0.810614)
 122:      3127.77    0.916083  ( -0.918741  -0.267798  -0.016800)
 123:      3132.59    0.207101  ( -0.057559   0.195154   0.407066)
 124:      3133.92    0.962341  ( -0.628631  -0.728445  -0.191135)
 125:      3135.53    1.175164  ( -0.156548   0.880774   0.612285)
 126:      3139.07    0.167322  (  0.181216   0.365320   0.031997)
 127:      3143.16    0.370419  (  0.052532   0.451113   0.405163)
 128:      3152.38    0.745533  (  0.159278   0.796925   0.291675)
 129:      3159.98    0.151662  (  0.245068  -0.122422  -0.276797)
 130:      3172.60    0.053272  (  0.110449  -0.122856  -0.161180)
 131:      3188.74    0.498223  ( -0.614207  -0.346245   0.032962)

--------------------------
THERMOCHEMISTRY AT 298.15K
--------------------------

Temperature         ... 298.15 K
Pressure            ... 1.00 atm
Total Mass          ... 356.39 AMU

Throughout the following assumptions are being made:
  (1) The electronic state is orbitally nondegenerate
      but the spin degeneracy is treated
  (2) There are no thermally accessible electronically excited states
  (3) Hindered rotations indicated by low frequency modes are not
      treated as such but are treated as vibrations and this may
      cause some error
  (4) All equations used are the standard statistical mechanics
      equations for an ideal gas
  (5) All vibrations are strictly harmonic

freq.      20.02  E(vib)   ...       0.56
freq.      42.05  E(vib)   ...       0.53
freq.      55.25  E(vib)   ...       0.52
freq.      57.78  E(vib)   ...       0.51
freq.      66.85  E(vib)   ...       0.50
freq.      72.85  E(vib)   ...       0.49
freq.      82.59  E(vib)   ...       0.48
freq.      97.14  E(vib)   ...       0.46
freq.     116.38  E(vib)   ...       0.44
freq.     131.72  E(vib)   ...       0.42
freq.     138.15  E(vib)   ...       0.42
freq.     153.18  E(vib)   ...       0.40
freq.     167.94  E(vib)   ...       0.38
freq.     177.85  E(vib)   ...       0.37
freq.     202.92  E(vib)   ...       0.35
freq.     216.26  E(vib)   ...       0.34
freq.     221.52  E(vib)   ...       0.33
freq.     229.15  E(vib)   ...       0.32
freq.     242.37  E(vib)   ...       0.31
freq.     275.82  E(vib)   ...       0.28
freq.     308.58  E(vib)   ...       0.26
freq.     312.97  E(vib)   ...       0.25
freq.     366.45  E(vib)   ...       0.22
freq.     374.36  E(vib)   ...       0.21
freq.     379.82  E(vib)   ...       0.21
freq.     390.32  E(vib)   ...       0.20
freq.     405.04  E(vib)   ...       0.19
freq.     411.78  E(vib)   ...       0.19
freq.     448.94  E(vib)   ...       0.17
freq.     478.40  E(vib)   ...       0.15
freq.     512.14  E(vib)   ...       0.14
freq.     540.48  E(vib)   ...       0.12
freq.     559.51  E(vib)   ...       0.12
freq.     575.59  E(vib)   ...       0.11
freq.     581.98  E(vib)   ...       0.11
freq.     587.44  E(vib)   ...       0.10
freq.     609.53  E(vib)   ...       0.10
freq.     617.70  E(vib)   ...       0.09
freq.     621.89  E(vib)   ...       0.09
freq.     644.79  E(vib)   ...       0.09
freq.     668.73  E(vib)   ...       0.08
freq.     691.14  E(vib)   ...       0.07
freq.     714.11  E(vib)   ...       0.07
freq.     730.37  E(vib)   ...       0.06
freq.     736.09  E(vib)   ...       0.06
freq.     742.74  E(vib)   ...       0.06
freq.     769.55  E(vib)   ...       0.06
freq.     796.34  E(vib)   ...       0.05
freq.     802.65  E(vib)   ...       0.05
freq.     816.17  E(vib)   ...       0.05
freq.     821.45  E(vib)   ...       0.05
freq.     830.91  E(vib)   ...       0.04
freq.     855.50  E(vib)   ...       0.04
freq.     875.54  E(vib)   ...       0.04
freq.     882.41  E(vib)   ...       0.04
freq.     895.62  E(vib)   ...       0.03
freq.     904.76  E(vib)   ...       0.03
freq.     905.24  E(vib)   ...       0.03
freq.     908.89  E(vib)   ...       0.03
freq.     937.47  E(vib)   ...       0.03
freq.     948.69  E(vib)   ...       0.03
freq.     949.34  E(vib)   ...       0.03
freq.     977.85  E(vib)   ...       0.03
freq.     979.14  E(vib)   ...       0.03
freq.     979.89  E(vib)   ...       0.02
freq.     996.86  E(vib)   ...       0.02
freq.    1011.11  E(vib)   ...       0.02
freq.    1017.31  E(vib)   ...       0.02
freq.    1033.49  E(vib)   ...       0.02
freq.    1047.83  E(vib)   ...       0.02
freq.    1069.90  E(vib)   ...       0.02
freq.    1082.59  E(vib)   ...       0.02
freq.    1085.30  E(vib)   ...       0.02
freq.    1123.61  E(vib)   ...       0.01
freq.    1140.01  E(vib)   ...       0.01
freq.    1142.67  E(vib)   ...       0.01
freq.    1155.79  E(vib)   ...       0.01
freq.    1158.48  E(vib)   ...       0.01
freq.    1167.12  E(vib)   ...       0.01
freq.    1181.21  E(vib)   ...       0.01
freq.    1200.97  E(vib)   ...       0.01
freq.    1202.41  E(vib)   ...       0.01
freq.    1249.63  E(vib)   ...       0.01
freq.    1268.65  E(vib)   ...       0.01
freq.    1281.71  E(vib)   ...       0.01
freq.    1296.12  E(vib)   ...       0.01
freq.    1313.19  E(vib)   ...       0.01
freq.    1314.60  E(vib)   ...       0.01
freq.    1342.62  E(vib)   ...       0.01
freq.    1348.33  E(vib)   ...       0.01
freq.    1380.27  E(vib)   ...       0.01
freq.    1385.25  E(vib)   ...       0.00
freq.    1390.50  E(vib)   ...       0.00
freq.    1424.57  E(vib)   ...       0.00
freq.    1432.50  E(vib)   ...       0.00
freq.    1447.46  E(vib)   ...       0.00
freq.    1451.42  E(vib)   ...       0.00
freq.    1460.98  E(vib)   ...       0.00
freq.    1473.93  E(vib)   ...       0.00
freq.    1492.80  E(vib)   ...       0.00
freq.    1567.03  E(vib)   ...       0.00
freq.    1572.88  E(vib)   ...       0.00
freq.    1577.32  E(vib)   ...       0.00
freq.    1580.31  E(vib)   ...       0.00
freq.    1597.04  E(vib)   ...       0.00
freq.    1607.95  E(vib)   ...       0.00
freq.    2954.59  E(vib)   ...       0.00
freq.    3047.49  E(vib)   ...       0.00
freq.    3051.32  E(vib)   ...       0.00
freq.    3064.12  E(vib)   ...       0.00
freq.    3067.67  E(vib)   ...       0.00
freq.    3098.52  E(vib)   ...       0.00
freq.    3114.79  E(vib)   ...       0.00
freq.    3119.07  E(vib)   ...       0.00
freq.    3120.34  E(vib)   ...       0.00
freq.    3127.11  E(vib)   ...       0.00
freq.    3127.77  E(vib)   ...       0.00
freq.    3132.59  E(vib)   ...       0.00
freq.    3133.92  E(vib)   ...       0.00
freq.    3135.53  E(vib)   ...       0.00
freq.    3139.07  E(vib)   ...       0.00
freq.    3143.16  E(vib)   ...       0.00
freq.    3152.38  E(vib)   ...       0.00
freq.    3159.98  E(vib)   ...       0.00
freq.    3172.60  E(vib)   ...       0.00
freq.    3188.74  E(vib)   ...       0.00

------------
INNER ENERGY
------------

The inner energy is: U= E(el) + E(ZPE) + E(vib) + E(rot) + E(trans)
    E(el)   - is the total energy from the electronic structure calculation
              = E(kin-el) + E(nuc-el) + E(el-el) + E(nuc-nuc)
    E(ZPE)  - the the zero temperature vibrational energy from the frequency calculation
    E(vib)  - the the finite temperature correction to E(ZPE) due to population
              of excited vibrational states
    E(rot)  - is the rotational thermal energy
    E(trans)- is the translational thermal energy

Summary of contributions to the inner energy U:
Electronic energy                ...  -2003.80390160 Eh
Zero point energy                ...      0.33931152 Eh     212.92 kcal/mol

Rotational constants in cm-1:     0.011142     0.006552     0.004524

                             ****ORCA TERMINATED NORMALLY****
TOTAL RUN TIME: 0 days 14 hours 4 minutes 59 seconds 299 msec
