                         Program Version 4.2.1 -  RELEASE  -
|  1> #
|  2> # ORCA calc attempt 1 :-)
|  3> #
|  4> ! BP86 D3BJ RIJCOSX def2-TZVP def2/J Grid6 FinalGrid6 MORead CPCM TightSCF
|  5> %moinp "IM2_2_Tight2.ges"
|  6> %cpcm
|  7> smd true
|  8> SMDsolvent "Toluene"
|  9> end
| 10> * xyz 1 4
| 11>   Cr  -0.41036249812630     -1.14992914507252     -2.34004385040183
| 12>   O   -2.12216162168026     -1.14519690995948     -1.17754406423218
| 13>   N   0.33988703026649     -0.73204259358667     -0.59739838549546
| 14>   N   1.39371869203748     -0.67020857183810     -2.97302303339981
| 15>   C   -3.34390554453468     -1.70536034968726     -1.64620120851950
| 16>   C   -3.66400554684112     -3.02700635729837     -1.35050474678491
| 17>   C   -4.13177506422986     -0.89896189557377     -2.45829289610933
| 18>   C   -4.83334950636377     -3.55621520137024     -1.89917362636501
| 19>   H   -3.01807769339847     -3.62296675460979     -0.70697328280137
| 20>   C   -5.29451159090046     -1.44923909552683     -3.00751894028585
| 21>   H   -3.84761889171642      0.13740043123590     -2.64312877303583
| 22>   C   -5.64370340100394     -2.77196066384732     -2.72742212316734
| 23>   H   -5.10776750890581     -4.58837594360039     -1.68193949199870
| 24>   H   -6.55311872442182     -3.19503628712647     -3.15344355397352
| 25>   H   -5.92943666246462     -0.83590943420375     -3.64645289529595
| 26>   C   -1.85503756079315     -1.07888671475903      0.21405677193792
| 27>   C   -0.50272252959506     -0.83744104304993      0.51440040863371
| 28>   C   -0.13138472637682     -0.72410375422834      1.86075582858572
| 29>   C   -2.83203083170993     -1.18824960591296      1.18758381812022
| 30>   C   -2.44073828022568     -1.06945389013828      2.52629724884316
| 31>   H   -3.87214703631805     -1.35995658791455      0.91515917601268
| 32>   C   -1.10128666175692     -0.84248526894378      2.85614798512020
| 33>   H   0.91020102767248     -0.55146470921543      2.12989130009331
| 34>   H   -3.19164540741716     -1.15440097025637      3.31072226834300
| 35>   H   -0.80646121400757     -0.75758821770234      3.90152086268094
| 36>   C   1.63102075099352     -0.38833547679691     -0.62616077272784
| 37>   C   2.23051467379856     -0.35329116060220     -1.88651613719271
| 38>   C   2.15204046404166     -0.58073292825340     -4.08993781489894
| 39>   C   3.47340976643520     -0.20164616424406     -3.76100167551290
| 40>   H   1.73818803434386     -0.78866235613231     -5.07397858417130
| 41>   C   3.52705777747528     -0.05889302166001     -2.37314479051929
| 42>   H   4.38611708320086      0.22725930942193     -1.77344455250381
| 43>   H   4.28392115578175     -0.05291671626512     -4.46725053119347
| 44>   H   2.17253196304111     -0.14110385777583      0.28963662667176
| 45>   C   -0.35267540107599     -3.12327768522243     -2.62375947635333
| 46>   H   0.38915838183004     -3.31194081919587     -3.41592372968261
| 47>   H   -1.37423470714951     -3.29038184903767     -3.02789668280952
| 48>   C   -0.08762045225426     -3.95538329734195     -1.37850907096418
| 49>   C   -0.31157890775637     -5.45596694637017     -1.62213231958667
| 50>   H   -0.73421018554087     -3.62441881502411     -0.54850355977938
| 51>   H   0.94746296994232     -3.78565713679879     -1.04447413247005
| 52>   H   -1.34855803888203     -5.65504427716665     -1.92960024882350
| 53>   H   -0.10792794869059     -6.03420947880856     -0.71020976703853
| 54>   H   0.34966437327728     -5.82900778853928     -2.41639757694764
| 55> *
| 56>
| 57>                          ****END OF INPUT****

CARTESIAN COORDINATES (ANGSTROEM)
---------------------------------
  Cr    -0.410362   -1.149929   -2.340044
  O     -2.122162   -1.145197   -1.177544
  N      0.339887   -0.732043   -0.597398
  N      1.393719   -0.670209   -2.973023
  C     -3.343906   -1.705360   -1.646201
  C     -3.664006   -3.027006   -1.350505
  C     -4.131775   -0.898962   -2.458293
  C     -4.833350   -3.556215   -1.899174
  H     -3.018078   -3.622967   -0.706973
  C     -5.294512   -1.449239   -3.007519
  H     -3.847619    0.137400   -2.643129
  C     -5.643703   -2.771961   -2.727422
  H     -5.107768   -4.588376   -1.681939
  H     -6.553119   -3.195036   -3.153444
  H     -5.929437   -0.835909   -3.646453
  C     -1.855038   -1.078887    0.214057
  C     -0.502723   -0.837441    0.514400
  C     -0.131385   -0.724104    1.860756
  C     -2.832031   -1.188250    1.187584
  C     -2.440738   -1.069454    2.526297
  H     -3.872147   -1.359957    0.915159
  C     -1.101287   -0.842485    2.856148
  H      0.910201   -0.551465    2.129891
  H     -3.191645   -1.154401    3.310722
  H     -0.806461   -0.757588    3.901521
  C      1.631021   -0.388335   -0.626161
  C      2.230515   -0.353291   -1.886516
  C      2.152040   -0.580733   -4.089938
  C      3.473410   -0.201646   -3.761002
  H      1.738188   -0.788662   -5.073979
  C      3.527058   -0.058893   -2.373145
  H      4.386117    0.227259   -1.773445
  H      4.283921   -0.052917   -4.467251
  H      2.172532   -0.141104    0.289637
  C     -0.352675   -3.123278   -2.623759
  H      0.389158   -3.311941   -3.415924
  H     -1.374235   -3.290382   -3.027897
  C     -0.087620   -3.955383   -1.378509
  C     -0.311579   -5.455967   -1.622132
  H     -0.734210   -3.624419   -0.548504
  H      0.947463   -3.785657   -1.044474
  H     -1.348558   -5.655044   -1.929600
  H     -0.107928   -6.034209   -0.710210
  H      0.349664   -5.829008   -2.416398

 Total Charge           Charge          ....    1
 Multiplicity           Mult            ....    4
 Number of Electrons    NEL             ....  185
 Basis Dimension        Dim             ....  878

ORBITAL ENERGIES
----------------
                 SPIN UP ORBITALS
  NO   OCC          E(Eh)            E(eV)
   0   1.0000    -214.631149     -5840.4105
   1   1.0000     -24.361201      -662.9020
   2   1.0000     -20.727022      -564.0110
   3   1.0000     -20.724341      -563.9380
   4   1.0000     -20.720967      -563.8462
   5   1.0000     -18.922309      -514.9022
   6   1.0000     -14.103245      -383.7688
   7   1.0000     -14.075999      -383.0274
   8   1.0000     -10.034727      -273.0588
   9   1.0000     -10.031557      -272.9726
  10   1.0000     -10.022641      -272.7299
  11   1.0000     -10.011563      -272.4285
  12   1.0000      -9.987996      -271.7872
  13   1.0000      -9.985483      -271.7188
  14   1.0000      -9.968697      -271.2620
  15   1.0000      -9.968558      -271.2583
  16   1.0000      -9.967746      -271.2362
  17   1.0000      -9.966804      -271.2105
  18   1.0000      -9.963263      -271.1142
  19   1.0000      -9.962875      -271.1036
  20   1.0000      -9.960715      -271.0448
  21   1.0000      -9.959087      -271.0005
  22   1.0000      -9.958536      -270.9855
  23   1.0000      -9.958352      -270.9805
  24   1.0000      -9.947398      -270.6824
  25   1.0000      -9.944619      -270.6068
  26   1.0000      -9.939394      -270.4647
  27   1.0000      -9.924891      -270.0700
  28   1.0000      -2.843479       -77.3750
  29   1.0000      -1.840978       -50.0955
  30   1.0000      -1.835271       -49.9403
  31   1.0000      -1.825873       -49.6845
  32   1.0000      -1.083294       -29.4779
  33   1.0000      -0.953494       -25.9459
  34   1.0000      -0.926394       -25.2085
  35   1.0000      -0.853946       -23.2370
  36   1.0000      -0.840040       -22.8587
  37   1.0000      -0.777752       -21.1637
  38   1.0000      -0.759402       -20.6644
  39   1.0000      -0.755981       -20.5713
  40   1.0000      -0.750513       -20.4225
  41   1.0000      -0.745408       -20.2836
  42   1.0000      -0.732993       -19.9458
  43   1.0000      -0.713782       -19.4230
  44   1.0000      -0.661843       -18.0097
  45   1.0000      -0.651048       -17.7159
  46   1.0000      -0.649361       -17.6700
  47   1.0000      -0.621050       -16.8996
  48   1.0000      -0.605281       -16.4705
  49   1.0000      -0.594350       -16.1731
  50   1.0000      -0.581830       -15.8324
  51   1.0000      -0.572154       -15.5691
  52   1.0000      -0.560834       -15.2611
  53   1.0000      -0.548767       -14.9327
  54   1.0000      -0.539086       -14.6693
  55   1.0000      -0.524966       -14.2851
  56   1.0000      -0.517524       -14.0825
  57   1.0000      -0.505570       -13.7573
  58   1.0000      -0.496446       -13.5090
  59   1.0000      -0.471807       -12.8385
  60   1.0000      -0.470617       -12.8061
  61   1.0000      -0.462901       -12.5962
  62   1.0000      -0.460026       -12.5179
  63   1.0000      -0.456020       -12.4089
  64   1.0000      -0.449650       -12.2356
  65   1.0000      -0.440784       -11.9943
  66   1.0000      -0.436693       -11.8830
  67   1.0000      -0.433796       -11.8042
  68   1.0000      -0.422510       -11.4971
  69   1.0000      -0.408861       -11.1257
  70   1.0000      -0.406267       -11.0551
  71   1.0000      -0.405083       -11.0229
  72   1.0000      -0.400352       -10.8941
  73   1.0000      -0.397261       -10.8100
  74   1.0000      -0.393503       -10.7078
  75   1.0000      -0.389754       -10.6057
  76   1.0000      -0.382686       -10.4134
  77   1.0000      -0.377546       -10.2735
  78   1.0000      -0.376138       -10.2352
  79   1.0000      -0.369834       -10.0637
  80   1.0000      -0.367076        -9.9886
  81   1.0000      -0.361112        -9.8264
  82   1.0000      -0.349414        -9.5081
  83   1.0000      -0.338839        -9.2203
  84   1.0000      -0.304359        -8.2820
  85   1.0000      -0.300569        -8.1789
  86   1.0000      -0.298670        -8.1272
  87   1.0000      -0.298175        -8.1137
  88   1.0000      -0.294973        -8.0266
  89   1.0000      -0.283954        -7.7268
  90   1.0000      -0.272164        -7.4060
  91   1.0000      -0.268436        -7.3045
  92   1.0000      -0.250446        -6.8150
  93   1.0000      -0.236470        -6.4347
  94   0.0000      -0.182736        -4.9725
  95   0.0000      -0.170608        -4.6425
  96   0.0000      -0.136448        -3.7129
  97   0.0000      -0.112066        -3.0495
  98   0.0000      -0.109214        -2.9719

                 SPIN DOWN ORBITALS
  NO   OCC          E(Eh)            E(eV)
   0   1.0000    -214.630870     -5840.4029
   1   1.0000     -24.320052      -661.7823
   2   1.0000     -20.697100      -563.1967
   3   1.0000     -20.692787      -563.0794
   4   1.0000     -20.688203      -562.9546
   5   1.0000     -18.922308      -514.9022
   6   1.0000     -14.104884      -383.8134
   7   1.0000     -14.076990      -383.0544
   8   1.0000     -10.034748      -273.0594
   9   1.0000     -10.031451      -272.9697
  10   1.0000     -10.021989      -272.7122
  11   1.0000     -10.011413      -272.4244
  12   1.0000      -9.987492      -271.7735
  13   1.0000      -9.985077      -271.7078
  14   1.0000      -9.968654      -271.2609
  15   1.0000      -9.968510      -271.2569
  16   1.0000      -9.967716      -271.2353
  17   1.0000      -9.966924      -271.2138
  18   1.0000      -9.963271      -271.1144
  19   1.0000      -9.962890      -271.1040
  20   1.0000      -9.960772      -271.0464
  21   1.0000      -9.958806      -270.9929
  22   1.0000      -9.958492      -270.9843
  23   1.0000      -9.958315      -270.9795
  24   1.0000      -9.947171      -270.6763
  25   1.0000      -9.944323      -270.5988
  26   1.0000      -9.942067      -270.5374
  27   1.0000      -9.925080      -270.0752
  28   1.0000      -2.733569       -74.3842
  29   1.0000      -1.736525       -47.2533
  30   1.0000      -1.725987       -46.9665
  31   1.0000      -1.714923       -46.6654
  32   1.0000      -1.082850       -29.4658
  33   1.0000      -0.953526       -25.9468
  34   1.0000      -0.926738       -25.2178
  35   1.0000      -0.853863       -23.2348
  36   1.0000      -0.839994       -22.8574
  37   1.0000      -0.777327       -21.1522
  38   1.0000      -0.759291       -20.6614
  39   1.0000      -0.756923       -20.5969
  40   1.0000      -0.749988       -20.4082
  41   1.0000      -0.745352       -20.2821
  42   1.0000      -0.732944       -19.9444
  43   1.0000      -0.713586       -19.4177
  44   1.0000      -0.661411       -17.9979
  45   1.0000      -0.652807       -17.7638
  46   1.0000      -0.649086       -17.6625
  47   1.0000      -0.620895       -16.8954
  48   1.0000      -0.604989       -16.4626
  49   1.0000      -0.594095       -16.1662
  50   1.0000      -0.580938       -15.8081
  51   1.0000      -0.572739       -15.5850
  52   1.0000      -0.560705       -15.2576
  53   1.0000      -0.548351       -14.9214
  54   1.0000      -0.537803       -14.6344
  55   1.0000      -0.524601       -14.2751
  56   1.0000      -0.516516       -14.0551
  57   1.0000      -0.505347       -13.7512
  58   1.0000      -0.495690       -13.4884
  59   1.0000      -0.471701       -12.8356
  60   1.0000      -0.469859       -12.7855
  61   1.0000      -0.461540       -12.5591
  62   1.0000      -0.459116       -12.4932
  63   1.0000      -0.455699       -12.4002
  64   1.0000      -0.449281       -12.2256
  65   1.0000      -0.440591       -11.9891
  66   1.0000      -0.435597       -11.8532
  67   1.0000      -0.432059       -11.7569
  68   1.0000      -0.422168       -11.4878
  69   1.0000      -0.407986       -11.1019
  70   1.0000      -0.405458       -11.0331
  71   1.0000      -0.404408       -11.0045
  72   1.0000      -0.399298       -10.8655
  73   1.0000      -0.396335       -10.7848
  74   1.0000      -0.392954       -10.6928
  75   1.0000      -0.388703       -10.5771
  76   1.0000      -0.382521       -10.4089
  77   1.0000      -0.375757       -10.2249
  78   1.0000      -0.374633       -10.1943
  79   1.0000      -0.366464        -9.9720
  80   1.0000      -0.363783        -9.8990
  81   1.0000      -0.358880        -9.7656
  82   1.0000      -0.349094        -9.4993
  83   1.0000      -0.337822        -9.1926
  84   1.0000      -0.303391        -8.2557
  85   1.0000      -0.299428        -8.1478
  86   1.0000      -0.297409        -8.0929
  87   1.0000      -0.287193        -7.8149
  88   1.0000      -0.282630        -7.6908
  89   1.0000      -0.279423        -7.6035
  90   1.0000      -0.251136        -6.8338
  91   0.0000      -0.174945        -4.7605
  92   0.0000      -0.158981        -4.3261
  93   0.0000      -0.144370        -3.9285
  94   0.0000      -0.140563        -3.8249
  95   0.0000      -0.135450        -3.6858

MULLIKEN ATOMIC CHARGES AND SPIN POPULATIONS
--------------------------------------------
   0 Cr:    0.619750    3.338878
   1 O :   -0.304492   -0.023960
   2 N :   -0.144179   -0.110593
   3 N :   -0.177427   -0.091242
   4 C :    0.341133   -0.023497
   5 C :   -0.258059    0.006435
   6 C :   -0.273439    0.011665
   7 C :   -0.085977   -0.001156
   8 H :    0.180300   -0.000237
   9 C :   -0.089978   -0.001997
  10 H :    0.165868    0.001449
  11 C :   -0.137810    0.003127
  12 H :    0.157183    0.000069
  13 H :    0.155225   -0.000182
  14 H :    0.156840   -0.000029
  15 C :    0.288185   -0.001441
  16 C :    0.140936    0.003418
  17 C :   -0.204558   -0.008492
  18 C :   -0.186535    0.002475
  19 C :   -0.135439   -0.004952
  20 H :    0.182137   -0.000028
  21 C :   -0.149059    0.003604
  22 H :    0.153417    0.000581
  23 H :    0.156410    0.000124
  24 H :    0.153587   -0.000457
  25 C :   -0.081085    0.050211
  26 C :    0.267686   -0.002678
  27 C :   -0.157150    0.038745
  28 C :   -0.093457    0.013423
  29 H :    0.164573   -0.000661
  30 C :   -0.268971    0.021512
  31 H :    0.157620   -0.001196
  32 H :    0.161463   -0.001543
  33 H :    0.169156   -0.005031
  34 C :   -0.370747   -0.261738
  35 H :    0.146840    0.019646
  36 H :    0.155719    0.019651
  37 C :   -0.240888    0.018918
  38 C :   -0.359787   -0.006816
  39 H :    0.126430   -0.002512
  40 H :    0.124276   -0.000890
  41 H :    0.123810    0.000114
  42 H :    0.138458   -0.002826
  43 H :    0.132037    0.000108
Sum of atomic charges         :    1.0000000

LOEWDIN ATOMIC CHARGES AND SPIN POPULATIONS
-------------------------------------------
   0 Cr:    0.386812    3.018073
   1 O :    0.355567    0.009191
   2 N :    0.197436   -0.034654
   3 N :    0.163182   -0.006811
   4 C :   -0.213968    0.005104
   5 C :   -0.104823    0.002553
   6 C :   -0.098777    0.002358
   7 C :   -0.114706    0.000059
   8 H :    0.168259    0.000047
   9 C :   -0.114320   -0.000130
  10 H :    0.168892    0.000169
  11 C :   -0.119558    0.001766
  12 H :    0.161067    0.000076
  13 H :    0.159753   -0.000004
  14 H :    0.160691    0.000014
  15 C :   -0.167357    0.000392
  16 C :   -0.173432    0.000893
  17 C :   -0.091865   -0.004460
  18 C :   -0.104294    0.001200
  19 C :   -0.118955   -0.002675
  20 H :    0.170884    0.000027
  21 C :   -0.125358    0.001553
  22 H :    0.161504    0.000064
  23 H :    0.160851   -0.000037
  24 H :    0.160787   -0.000201
  25 C :   -0.095701    0.027624
  26 C :   -0.217377    0.019420
  27 C :   -0.159659    0.024333
  28 C :   -0.154143    0.017336
  29 H :    0.153539   -0.000180
  30 C :   -0.094484    0.019253
  31 H :    0.156040    0.000073
  32 H :    0.151765   -0.000252
  33 H :    0.167619   -0.002197
  34 C :   -0.298462   -0.102471
  35 H :    0.148774    0.007731
  36 H :    0.153827    0.005740
  37 C :   -0.307063   -0.001029
  38 C :   -0.306648   -0.006706
  39 H :    0.144832   -0.000897
  40 H :    0.151043   -0.000643
  41 H :    0.123093   -0.000071
  42 H :    0.127690   -0.001530
  43 H :    0.127040   -0.000098

  Mayer bond orders larger than 0.100000
B(  0-Cr,  1-O ) :   0.4141 B(  0-Cr,  2-N ) :   0.8042 B(  0-Cr,  3-N ) :   0.7570
B(  0-Cr, 34-C ) :   0.9620 B(  1-O ,  4-C ) :   0.6483 B(  1-O , 15-C ) :   0.7179
B(  1-O , 16-C ) :   0.1499 B(  2-N , 16-C ) :   0.9736 B(  2-N , 25-C ) :   1.4265
B(  3-N , 26-C ) :   0.9482 B(  3-N , 27-C ) :   1.3609 B(  4-C ,  5-C ) :   1.3685
B(  4-C ,  6-C ) :   1.3943 B(  5-C ,  7-C ) :   1.3922 B(  5-C ,  8-H ) :   0.9468
B(  6-C ,  9-C ) :   1.3725 B(  6-C , 10-H ) :   0.9663 B(  7-C , 11-C ) :   1.3747
B(  7-C , 12-H ) :   0.9610 B(  9-C , 11-C ) :   1.3851 B(  9-C , 14-H ) :   0.9613
B( 11-C , 13-H ) :   0.9633 B( 15-C , 16-C ) :   1.3409 B( 15-C , 18-C ) :   1.3946
B( 16-C , 17-C ) :   1.2988 B( 17-C , 21-C ) :   1.4067 B( 17-C , 22-H ) :   0.9606
B( 18-C , 19-C ) :   1.3672 B( 18-C , 20-H ) :   0.9409 B( 19-C , 21-C ) :   1.3834
B( 19-C , 23-H ) :   0.9640 B( 21-C , 24-H ) :   0.9664 B( 25-C , 26-C ) :   1.3326
B( 25-C , 33-H ) :   0.9159 B( 26-C , 30-C ) :   1.2349 B( 27-C , 28-C ) :   1.3329
B( 27-C , 29-H ) :   0.9547 B( 28-C , 30-C ) :   1.4420 B( 28-C , 32-H ) :   0.9625
B( 30-C , 31-H ) :   0.9835 B( 34-C , 35-H ) :   0.9267 B( 34-C , 36-H ) :   0.9229
B( 34-C , 37-C ) :   0.9636 B( 37-C , 38-C ) :   0.9513 B( 37-C , 39-H ) :   0.9608
B( 37-C , 40-H ) :   0.9477 B( 38-C , 41-H ) :   0.9661 B( 38-C , 42-H ) :   0.9628
B( 38-C , 43-H ) :   0.9670

Dispersion correction           -0.107819071
FINAL SINGLE POINT ENERGY     -2003.870843886654

DIPOLE MOMENT
-------------
                                X             Y             Z
Electronic contribution:      3.52026      18.31544      -5.29626
Nuclear contribution   :     -3.80133     -17.90260       5.04985
                        -----------------------------------------
Total Dipole Moment    :     -0.28107       0.41284      -0.24641
                        -----------------------------------------
Magnitude (a.u.)       :      0.55691
Magnitude (Debye)      :      1.41556

Rotational constants in cm-1:     0.010379     0.005985     0.004840
Rotational constants in MHz :   311.146213   179.431414   145.107443

                             ****ORCA TERMINATED NORMALLY****
TOTAL RUN TIME: 0 days 0 hours 8 minutes 0 seconds 970 msec
