                         Program Version 4.2.1 -  RELEASE  -
|  1> #
|  2> # ORCA calc attempt 1 :-)
|  3> #
|  4> ! BP86 D3BJ RIJCOSX def2-TZVP def2/J Grid6 FinalGrid6 MORead CPCM TightSCF
|  5> %moinp "IM2_4_Tight2.ges"
|  6> %cpcm
|  7> smd true
|  8> SMDsolvent "Toluene"
|  9> end
| 10> * xyz 1 4
| 11>   Cr  -0.32212848619893     -0.72724711733564     -2.36385631804102
| 12>   S   -2.47764816304550     -0.21122938106326     -1.36887024326964
| 13>   N   0.28178122737861     -0.67000728677869     -0.49306207110041
| 14>   N   1.61926103880722     -0.67596668625793     -2.76085351239177
| 15>   C   -3.59192817447922     -1.58243399171509     -1.67772098164674
| 16>   C   -3.50743709253489     -2.78142066457329     -0.96515300344657
| 17>   C   -4.50996410103892     -1.41290738453442     -2.71846698015892
| 18>   C   -4.36160222671514     -3.82911639750531     -1.30898930926318
| 19>   H   -2.79086435386482     -2.89383432711811     -0.15264845611697
| 20>   C   -5.34801097445788     -2.47707583346811     -3.05992925712074
| 21>   H   -4.57498395078794     -0.46269604320774     -3.25033815361373
| 22>   C   -5.27519695034864     -3.68231145997924     -2.35787634793187
| 23>   H   -4.30898532950166     -4.76644353402493     -0.75472945028860
| 24>   H   -5.93696494374143     -4.50695295453681     -2.62218889344009
| 25>   H   -6.06821183971833     -2.35447190851211     -3.86887444251201
| 26>   C   -1.97182591377039     -0.44723772290569      0.32584993827141
| 27>   C   -0.60498465258964     -0.65976255899105      0.59670471526231
| 28>   C   -0.21274090701982     -0.84990585200411      1.93290485575679
| 29>   C   -2.91759560692210     -0.38940076690664      1.35191900803279
| 30>   C   -2.51077996311668     -0.57508613638481      2.67123767813028
| 31>   H   -3.96563401740497     -0.21015603231078      1.11147337234467
| 32>   C   -1.15913734463913     -0.80757986424857      2.95302659278192
| 33>   H   0.82930202478283     -1.05080664659771      2.17812726366031
| 34>   H   -3.24352012384976     -0.53717694063124      3.47634274670834
| 35>   H   -0.83762686115396     -0.96228768937292      3.98295445184451
| 36>   C   1.61682420118661     -0.63420794675376     -0.38690138521263
| 37>   C   2.35814135326896     -0.64731456581800     -1.56697739440249
| 38>   C   2.51362532743239     -0.66412694559471     -3.77547779417378
| 39>   C   3.83364189584585     -0.62539689581587     -3.27022735439907
| 40>   H   2.19283726816559     -0.68803722462874     -4.81445950632874
| 41>   C   3.73998403040632     -0.61430463546022     -1.87736972225299
| 42>   H   4.55692114116316     -0.58092179072250     -1.16247577252329
| 43>   H   4.74016851273173     -0.60944867569571     -3.86679065134945
| 44>   H   2.09966484916984     -0.57576012898318      0.59063140857781
| 45>   C   -0.71885696476233     -2.58388978425274     -2.96225401046744
| 46>   H   -0.21468607598206     -2.56712086811666     -3.95121209736074
| 47>   H   -1.80804052336931     -2.66767864680013     -3.10567806102105
| 48>   C   -0.17076581474837     -3.67581651004624     -2.05965112573918
| 49>   C   -0.51535499243980     -5.08077781273627     -2.57862479112749
| 50>   H   -0.59019016359264     -3.55627732637080     -1.04714029046916
| 51>   H   0.92068054153854     -3.56943943299263     -1.96228234971408
| 52>   H   -1.60452719378867     -5.21242273285662     -2.65065343419926
| 53>   H   -0.11994969996235     -5.85304237618664     -1.90429214128714
| 54>   H   -0.08785000633210     -5.24915051920402     -3.57687672900064
| 55> *
| 56>
| 57>                          ****END OF INPUT****

CARTESIAN COORDINATES (ANGSTROEM)
---------------------------------
  Cr    -0.322128   -0.727247   -2.363856
  S     -2.477648   -0.211229   -1.368870
  N      0.281781   -0.670007   -0.493062
  N      1.619261   -0.675967   -2.760854
  C     -3.591928   -1.582434   -1.677721
  C     -3.507437   -2.781421   -0.965153
  C     -4.509964   -1.412907   -2.718467
  C     -4.361602   -3.829116   -1.308989
  H     -2.790864   -2.893834   -0.152648
  C     -5.348011   -2.477076   -3.059929
  H     -4.574984   -0.462696   -3.250338
  C     -5.275197   -3.682311   -2.357876
  H     -4.308985   -4.766444   -0.754729
  H     -5.936965   -4.506953   -2.622189
  H     -6.068212   -2.354472   -3.868874
  C     -1.971826   -0.447238    0.325850
  C     -0.604985   -0.659763    0.596705
  C     -0.212741   -0.849906    1.932905
  C     -2.917596   -0.389401    1.351919
  C     -2.510780   -0.575086    2.671238
  H     -3.965634   -0.210156    1.111473
  C     -1.159137   -0.807580    2.953027
  H      0.829302   -1.050807    2.178127
  H     -3.243520   -0.537177    3.476343
  H     -0.837627   -0.962288    3.982954
  C      1.616824   -0.634208   -0.386901
  C      2.358141   -0.647315   -1.566977
  C      2.513625   -0.664127   -3.775478
  C      3.833642   -0.625397   -3.270227
  H      2.192837   -0.688037   -4.814460
  C      3.739984   -0.614305   -1.877370
  H      4.556921   -0.580922   -1.162476
  H      4.740169   -0.609449   -3.866791
  H      2.099665   -0.575760    0.590631
  C     -0.718857   -2.583890   -2.962254
  H     -0.214686   -2.567121   -3.951212
  H     -1.808041   -2.667679   -3.105678
  C     -0.170766   -3.675817   -2.059651
  C     -0.515355   -5.080778   -2.578625
  H     -0.590190   -3.556277   -1.047140
  H      0.920681   -3.569439   -1.962282
  H     -1.604527   -5.212423   -2.650653
  H     -0.119950   -5.853042   -1.904292
  H     -0.087850   -5.249151   -3.576877

 Total Charge           Charge          ....    1
 Multiplicity           Mult            ....    4
 Number of Electrons    NEL             ....  193
 Basis Dimension        Dim             ....  884

ORBITAL ENERGIES
----------------
                 SPIN UP ORBITALS
  NO   OCC          E(Eh)            E(eV)
   0   1.0000    -214.631991     -5840.4334
   1   1.0000     -88.203803     -2400.1475
   2   1.0000     -24.362797      -662.9454
   3   1.0000     -20.728782      -564.0588
   4   1.0000     -20.725723      -563.9756
   5   1.0000     -20.722608      -563.8908
   6   1.0000     -14.103418      -383.7735
   7   1.0000     -14.075805      -383.0221
   8   1.0000     -10.022234      -272.7188
   9   1.0000     -10.016879      -272.5731
  10   1.0000     -10.003023      -272.1961
  11   1.0000     -10.000082      -272.1161
  12   1.0000      -9.988983      -271.8141
  13   1.0000      -9.985816      -271.7279
  14   1.0000      -9.970982      -271.3242
  15   1.0000      -9.967750      -271.2363
  16   1.0000      -9.965892      -271.1857
  17   1.0000      -9.964929      -271.1595
  18   1.0000      -9.964767      -271.1551
  19   1.0000      -9.960601      -271.0417
  20   1.0000      -9.960219      -271.0313
  21   1.0000      -9.958703      -270.9901
  22   1.0000      -9.958216      -270.9768
  23   1.0000      -9.955473      -270.9022
  24   1.0000      -9.948554      -270.7139
  25   1.0000      -9.942778      -270.5567
  26   1.0000      -9.938865      -270.4503
  27   1.0000      -9.923467      -270.0313
  28   1.0000      -7.783577      -211.8019
  29   1.0000      -5.804222      -157.9409
  30   1.0000      -5.800828      -157.8485
  31   1.0000      -5.796454      -157.7295
  32   1.0000      -2.843759       -77.3826
  33   1.0000      -1.841241       -50.1027
  34   1.0000      -1.834285       -49.9134
  35   1.0000      -1.826736       -49.7080
  36   1.0000      -0.954251       -25.9665
  37   1.0000      -0.928087       -25.2545
  38   1.0000      -0.863617       -23.5002
  39   1.0000      -0.844847       -22.9895
  40   1.0000      -0.801831       -21.8189
  41   1.0000      -0.771108       -20.9829
  42   1.0000      -0.755080       -20.5468
  43   1.0000      -0.751104       -20.4386
  44   1.0000      -0.746168       -20.3043
  45   1.0000      -0.738600       -20.0983
  46   1.0000      -0.721401       -19.6303
  47   1.0000      -0.697229       -18.9726
  48   1.0000      -0.658030       -17.9059
  49   1.0000      -0.650085       -17.6897
  50   1.0000      -0.620069       -16.8729
  51   1.0000      -0.609788       -16.5932
  52   1.0000      -0.601982       -16.3808
  53   1.0000      -0.589431       -16.0392
  54   1.0000      -0.575191       -15.6518
  55   1.0000      -0.570486       -15.5237
  56   1.0000      -0.549578       -14.9548
  57   1.0000      -0.534902       -14.5554
  58   1.0000      -0.532061       -14.4781
  59   1.0000      -0.521850       -14.2003
  60   1.0000      -0.493367       -13.4252
  61   1.0000      -0.489435       -13.3182
  62   1.0000      -0.471729       -12.8364
  63   1.0000      -0.466871       -12.7042
  64   1.0000      -0.464753       -12.6466
  65   1.0000      -0.457480       -12.4487
  66   1.0000      -0.454265       -12.3612
  67   1.0000      -0.443339       -12.0639
  68   1.0000      -0.438849       -11.9417
  69   1.0000      -0.436480       -11.8772
  70   1.0000      -0.428036       -11.6474
  71   1.0000      -0.421149       -11.4601
  72   1.0000      -0.418369       -11.3844
  73   1.0000      -0.408190       -11.1074
  74   1.0000      -0.405921       -11.0457
  75   1.0000      -0.404314       -11.0019
  76   1.0000      -0.396971       -10.8021
  77   1.0000      -0.391548       -10.6546
  78   1.0000      -0.386998       -10.5308
  79   1.0000      -0.383248       -10.4287
  80   1.0000      -0.378969       -10.3123
  81   1.0000      -0.375388       -10.2148
  82   1.0000      -0.366454        -9.9717
  83   1.0000      -0.364563        -9.9203
  84   1.0000      -0.360629        -9.8132
  85   1.0000      -0.347830        -9.4649
  86   1.0000      -0.343401        -9.3444
  87   1.0000      -0.336725        -9.1627
  88   1.0000      -0.304927        -8.2975
  89   1.0000      -0.304529        -8.2866
  90   1.0000      -0.300294        -8.1714
  91   1.0000      -0.293514        -7.9869
  92   1.0000      -0.293247        -7.9797
  93   1.0000      -0.283243        -7.7074
  94   1.0000      -0.273432        -7.4405
  95   1.0000      -0.267685        -7.2841
  96   1.0000      -0.252383        -6.8677
  97   1.0000      -0.242159        -6.5895
  98   0.0000      -0.189099        -5.1456
  99   0.0000      -0.173648        -4.7252
 100   0.0000      -0.143170        -3.8959
 101   0.0000      -0.124354        -3.3839
 102   0.0000      -0.111104        -3.0233

                 SPIN DOWN ORBITALS
  NO   OCC          E(Eh)            E(eV)
   0   1.0000    -214.631697     -5840.4254
   1   1.0000     -88.204061     -2400.1545
   2   1.0000     -24.322000      -661.8353
   3   1.0000     -20.699482      -563.2615
   4   1.0000     -20.694707      -563.1316
   5   1.0000     -20.689471      -562.9891
   6   1.0000     -14.104988      -383.8162
   7   1.0000     -14.076638      -383.0448
   8   1.0000     -10.021665      -272.7034
   9   1.0000     -10.016754      -272.5697
  10   1.0000     -10.002835      -272.1910
  11   1.0000      -9.999759      -272.1073
  12   1.0000      -9.988566      -271.8027
  13   1.0000      -9.985428      -271.7173
  14   1.0000      -9.970981      -271.3242
  15   1.0000      -9.967855      -271.2391
  16   1.0000      -9.965922      -271.1865
  17   1.0000      -9.964954      -271.1602
  18   1.0000      -9.964739      -271.1543
  19   1.0000      -9.960632      -271.0426
  20   1.0000      -9.959981      -271.0249
  21   1.0000      -9.958675      -270.9893
  22   1.0000      -9.958194      -270.9762
  23   1.0000      -9.955491      -270.9027
  24   1.0000      -9.948357      -270.7086
  25   1.0000      -9.942464      -270.5482
  26   1.0000      -9.941630      -270.5255
  27   1.0000      -9.923647      -270.0362
  28   1.0000      -7.783786      -211.8076
  29   1.0000      -5.804377      -157.9451
  30   1.0000      -5.801091      -157.8557
  31   1.0000      -5.796965      -157.7434
  32   1.0000      -2.734578       -74.4117
  33   1.0000      -1.738342       -47.3027
  34   1.0000      -1.726259       -46.9739
  35   1.0000      -1.714817       -46.6625
  36   1.0000      -0.954245       -25.9663
  37   1.0000      -0.928377       -25.2624
  38   1.0000      -0.863504       -23.4971
  39   1.0000      -0.844739       -22.9865
  40   1.0000      -0.801823       -21.8187
  41   1.0000      -0.770684       -20.9714
  42   1.0000      -0.755982       -20.5713
  43   1.0000      -0.750730       -20.4284
  44   1.0000      -0.746051       -20.3011
  45   1.0000      -0.738582       -20.0979
  46   1.0000      -0.721301       -19.6276
  47   1.0000      -0.697159       -18.9707
  48   1.0000      -0.657687       -17.8966
  49   1.0000      -0.651945       -17.7403
  50   1.0000      -0.619894       -16.8682
  51   1.0000      -0.609707       -16.5910
  52   1.0000      -0.601641       -16.3715
  53   1.0000      -0.589035       -16.0285
  54   1.0000      -0.574676       -15.6377
  55   1.0000      -0.571079       -15.5398
  56   1.0000      -0.549306       -14.9474
  57   1.0000      -0.534489       -14.5442
  58   1.0000      -0.531125       -14.4526
  59   1.0000      -0.521654       -14.1949
  60   1.0000      -0.493010       -13.4155
  61   1.0000      -0.489142       -13.3102
  62   1.0000      -0.471542       -12.8313
  63   1.0000      -0.465927       -12.6785
  64   1.0000      -0.464480       -12.6392
  65   1.0000      -0.456458       -12.4208
  66   1.0000      -0.454000       -12.3540
  67   1.0000      -0.442255       -12.0344
  68   1.0000      -0.437573       -11.9070
  69   1.0000      -0.436226       -11.8703
  70   1.0000      -0.426630       -11.6092
  71   1.0000      -0.420574       -11.4444
  72   1.0000      -0.417037       -11.3482
  73   1.0000      -0.407470       -11.0878
  74   1.0000      -0.405359       -11.0304
  75   1.0000      -0.403829       -10.9887
  76   1.0000      -0.395384       -10.7590
  77   1.0000      -0.389675       -10.6036
  78   1.0000      -0.385800       -10.4982
  79   1.0000      -0.383047       -10.4232
  80   1.0000      -0.377517       -10.2728
  81   1.0000      -0.369951       -10.0669
  82   1.0000      -0.365555        -9.9473
  83   1.0000      -0.362637        -9.8679
  84   1.0000      -0.358021        -9.7422
  85   1.0000      -0.347525        -9.4566
  86   1.0000      -0.342016        -9.3067
  87   1.0000      -0.335684        -9.1344
  88   1.0000      -0.304037        -8.2733
  89   1.0000      -0.303653        -8.2628
  90   1.0000      -0.292958        -7.9718
  91   1.0000      -0.288023        -7.8375
  92   1.0000      -0.281169        -7.6510
  93   1.0000      -0.275226        -7.4893
  94   1.0000      -0.253768        -6.9054
  95   0.0000      -0.174978        -4.7614
  96   0.0000      -0.167496        -4.5578
  97   0.0000      -0.153823        -4.1857
  98   0.0000      -0.146746        -3.9932
  99   0.0000      -0.141307        -3.8452

MULLIKEN ATOMIC CHARGES AND SPIN POPULATIONS
--------------------------------------------
   0 Cr:    0.493243    3.364816
   1 S :    0.007251   -0.053760
   2 N :   -0.155540   -0.117283
   3 N :   -0.187207   -0.079340
   4 C :    0.130746    0.002344
   5 C :   -0.174956    0.004804
   6 C :   -0.181667    0.000325
   7 C :   -0.156080    0.000564
   8 H :    0.188436    0.000857
   9 C :   -0.131717    0.001514
  10 H :    0.158203    0.000897
  11 C :   -0.110398   -0.001392
  12 H :    0.153046    0.000100
  13 H :    0.153657    0.000079
  14 H :    0.154378    0.000020
  15 C :   -0.003627   -0.003366
  16 C :    0.305253    0.014853
  17 C :   -0.236271   -0.007091
  18 C :   -0.110024    0.002198
  19 C :   -0.141107   -0.002806
  20 H :    0.161993    0.000215
  21 C :   -0.118090    0.002242
  22 H :    0.149820    0.000587
  23 H :    0.156464    0.000160
  24 H :    0.156456   -0.000410
  25 C :   -0.021154    0.044692
  26 C :    0.210386   -0.001264
  27 C :   -0.147540    0.032858
  28 C :   -0.099960    0.011693
  29 H :    0.165399   -0.000267
  30 C :   -0.261705    0.018206
  31 H :    0.157802   -0.000869
  32 H :    0.161906   -0.001331
  33 H :    0.165554   -0.004667
  34 C :   -0.365516   -0.274639
  35 H :    0.147175    0.015863
  36 H :    0.164071    0.023229
  37 C :   -0.205447    0.019271
  38 C :   -0.374225   -0.006154
  39 H :    0.110271   -0.003939
  40 H :    0.132209   -0.000977
  41 H :    0.133339    0.000121
  42 H :    0.136782   -0.002880
  43 H :    0.128391   -0.000074
Sum of atomic charges         :    1.0000000

LOEWDIN ATOMIC CHARGES AND SPIN POPULATIONS
-------------------------------------------
   0 Cr:    0.203599    3.026725
   1 S :    0.900768    0.007445
   2 N :    0.185812   -0.032860
   3 N :    0.162451   -0.003807
   4 C :   -0.328531    0.009995
   5 C :   -0.127066   -0.000105
   6 C :   -0.133110   -0.000449
   7 C :   -0.121060    0.001041
   8 H :    0.163349    0.000130
   9 C :   -0.120348    0.000899
  10 H :    0.160236    0.000132
  11 C :   -0.119009   -0.000883
  12 H :    0.160024    0.000135
  13 H :    0.158752    0.000006
  14 H :    0.160028    0.000102
  15 C :   -0.294524    0.004817
  16 C :   -0.188924    0.001181
  17 C :   -0.094275   -0.003793
  18 C :   -0.116099    0.000582
  19 C :   -0.120950   -0.001476
  20 H :    0.165656    0.000034
  21 C :   -0.110809    0.000901
  22 H :    0.161041    0.000097
  23 H :    0.161001    0.000057
  24 H :    0.162108   -0.000217
  25 C :   -0.098717    0.024489
  26 C :   -0.223195    0.018344
  27 C :   -0.158972    0.020285
  28 C :   -0.152388    0.015069
  29 H :    0.153441   -0.000130
  30 C :   -0.092765    0.016377
  31 H :    0.156075    0.000146
  32 H :    0.151984   -0.000242
  33 H :    0.167337   -0.002031
  34 C :   -0.302920   -0.106151
  35 H :    0.155670    0.004727
  36 H :    0.149525    0.008676
  37 C :   -0.303768   -0.000205
  38 C :   -0.305525   -0.006460
  39 H :    0.146219   -0.001736
  40 H :    0.150479   -0.000109
  41 H :    0.124222   -0.000069
  42 H :    0.127328   -0.001546
  43 H :    0.125847   -0.000126

  Mayer bond orders larger than 0.100000
B(  0-Cr,  1-S ) :   0.6930 B(  0-Cr,  2-N ) :   0.7631 B(  0-Cr,  3-N ) :   0.6946
B(  0-Cr, 34-C ) :   0.9463 B(  1-S ,  4-C ) :   0.8822 B(  1-S , 15-C ) :   0.9192
B(  2-N , 16-C ) :   1.0056 B(  2-N , 25-C ) :   1.3967 B(  3-N , 26-C ) :   0.9668
B(  3-N , 27-C ) :   1.3682 B(  4-C ,  5-C ) :   1.2745 B(  4-C ,  6-C ) :   1.3110
B(  5-C ,  7-C ) :   1.4086 B(  5-C ,  8-H ) :   0.9406 B(  6-C ,  9-C ) :   1.3999
B(  6-C , 10-H ) :   0.9652 B(  7-C , 11-C ) :   1.3600 B(  7-C , 12-H ) :   0.9694
B(  9-C , 11-C ) :   1.3786 B(  9-C , 14-H ) :   0.9658 B( 11-C , 13-H ) :   0.9636
B( 15-C , 16-C ) :   1.2764 B( 15-C , 18-C ) :   1.3241 B( 16-C , 17-C ) :   1.2971
B( 17-C , 21-C ) :   1.4143 B( 17-C , 22-H ) :   0.9589 B( 18-C , 19-C ) :   1.3926
B( 18-C , 20-H ) :   0.9618 B( 19-C , 21-C ) :   1.3435 B( 19-C , 23-H ) :   0.9684
B( 21-C , 24-H ) :   0.9623 B( 25-C , 26-C ) :   1.3742 B( 25-C , 33-H ) :   0.9013
B( 26-C , 30-C ) :   1.2352 B( 27-C , 28-C ) :   1.3375 B( 27-C , 29-H ) :   0.9518
B( 28-C , 30-C ) :   1.4503 B( 28-C , 32-H ) :   0.9617 B( 30-C , 31-H ) :   0.9830
B( 34-C , 35-H ) :   0.9181 B( 34-C , 36-H ) :   0.9240 B( 34-C , 37-C ) :   0.9696
B( 37-C , 38-C ) :   0.9482 B( 37-C , 39-H ) :   0.9460 B( 37-C , 40-H ) :   0.9552
B( 38-C , 41-H ) :   0.9675 B( 38-C , 42-H ) :   0.9626 B( 38-C , 43-H ) :   0.9666

Dispersion correction           -0.117829876
FINAL SINGLE POINT ENERGY     -2326.885050423226

DIPOLE MOMENT
-------------
                                X             Y             Z
Electronic contribution:      3.53606      22.42447      -2.89967
Nuclear contribution   :     -3.30582     -22.12696       2.89718
                        -----------------------------------------
Total Dipole Moment    :      0.23024       0.29751      -0.00249
                        -----------------------------------------
Magnitude (a.u.)       :      0.37620
Magnitude (Debye)      :      0.95623

Rotational constants in cm-1:     0.009820     0.005861     0.004517
Rotational constants in MHz :   294.401084   175.720300   135.411807

                             ****ORCA TERMINATED NORMALLY****
TOTAL RUN TIME: 0 days 0 hours 7 minutes 58 seconds 75 msec
