                         Program Version 4.2.1 -  RELEASE  -
|  1> #
|  2> # ORCA calc attempt 1 :-)
|  3> #
|  4> ! BP86 D3BJ RIJCOSX def2-TZVP def2/J Grid6 FinalGrid6 MORead Freq
|  5> %moinp "IM2_4_Tight2.ges"
|  6> * xyz 1 4
|  7>   Cr  -0.32212848619893     -0.72724711733564     -2.36385631804102
|  8>   S   -2.47764816304550     -0.21122938106326     -1.36887024326964
|  9>   N   0.28178122737861     -0.67000728677869     -0.49306207110041
| 10>   N   1.61926103880722     -0.67596668625793     -2.76085351239177
| 11>   C   -3.59192817447922     -1.58243399171509     -1.67772098164674
| 12>   C   -3.50743709253489     -2.78142066457329     -0.96515300344657
| 13>   C   -4.50996410103892     -1.41290738453442     -2.71846698015892
| 14>   C   -4.36160222671514     -3.82911639750531     -1.30898930926318
| 15>   H   -2.79086435386482     -2.89383432711811     -0.15264845611697
| 16>   C   -5.34801097445788     -2.47707583346811     -3.05992925712074
| 17>   H   -4.57498395078794     -0.46269604320774     -3.25033815361373
| 18>   C   -5.27519695034864     -3.68231145997924     -2.35787634793187
| 19>   H   -4.30898532950166     -4.76644353402493     -0.75472945028860
| 20>   H   -5.93696494374143     -4.50695295453681     -2.62218889344009
| 21>   H   -6.06821183971833     -2.35447190851211     -3.86887444251201
| 22>   C   -1.97182591377039     -0.44723772290569      0.32584993827141
| 23>   C   -0.60498465258964     -0.65976255899105      0.59670471526231
| 24>   C   -0.21274090701982     -0.84990585200411      1.93290485575679
| 25>   C   -2.91759560692210     -0.38940076690664      1.35191900803279
| 26>   C   -2.51077996311668     -0.57508613638481      2.67123767813028
| 27>   H   -3.96563401740497     -0.21015603231078      1.11147337234467
| 28>   C   -1.15913734463913     -0.80757986424857      2.95302659278192
| 29>   H   0.82930202478283     -1.05080664659771      2.17812726366031
| 30>   H   -3.24352012384976     -0.53717694063124      3.47634274670834
| 31>   H   -0.83762686115396     -0.96228768937292      3.98295445184451
| 32>   C   1.61682420118661     -0.63420794675376     -0.38690138521263
| 33>   C   2.35814135326896     -0.64731456581800     -1.56697739440249
| 34>   C   2.51362532743239     -0.66412694559471     -3.77547779417378
| 35>   C   3.83364189584585     -0.62539689581587     -3.27022735439907
| 36>   H   2.19283726816559     -0.68803722462874     -4.81445950632874
| 37>   C   3.73998403040632     -0.61430463546022     -1.87736972225299
| 38>   H   4.55692114116316     -0.58092179072250     -1.16247577252329
| 39>   H   4.74016851273173     -0.60944867569571     -3.86679065134945
| 40>   H   2.09966484916984     -0.57576012898318      0.59063140857781
| 41>   C   -0.71885696476233     -2.58388978425274     -2.96225401046744
| 42>   H   -0.21468607598206     -2.56712086811666     -3.95121209736074
| 43>   H   -1.80804052336931     -2.66767864680013     -3.10567806102105
| 44>   C   -0.17076581474837     -3.67581651004624     -2.05965112573918
| 45>   C   -0.51535499243980     -5.08077781273627     -2.57862479112749
| 46>   H   -0.59019016359264     -3.55627732637080     -1.04714029046916
| 47>   H   0.92068054153854     -3.56943943299263     -1.96228234971408
| 48>   H   -1.60452719378867     -5.21242273285662     -2.65065343419926
| 49>   H   -0.11994969996235     -5.85304237618664     -1.90429214128714
| 50>   H   -0.08785000633210     -5.24915051920402     -3.57687672900064
| 51> *
| 52>
| 53>                          ****END OF INPUT****

CARTESIAN COORDINATES (ANGSTROEM)
---------------------------------
  Cr    -0.322128   -0.727247   -2.363856
  S     -2.477648   -0.211229   -1.368870
  N      0.281781   -0.670007   -0.493062
  N      1.619261   -0.675967   -2.760854
  C     -3.591928   -1.582434   -1.677721
  C     -3.507437   -2.781421   -0.965153
  C     -4.509964   -1.412907   -2.718467
  C     -4.361602   -3.829116   -1.308989
  H     -2.790864   -2.893834   -0.152648
  C     -5.348011   -2.477076   -3.059929
  H     -4.574984   -0.462696   -3.250338
  C     -5.275197   -3.682311   -2.357876
  H     -4.308985   -4.766444   -0.754729
  H     -5.936965   -4.506953   -2.622189
  H     -6.068212   -2.354472   -3.868874
  C     -1.971826   -0.447238    0.325850
  C     -0.604985   -0.659763    0.596705
  C     -0.212741   -0.849906    1.932905
  C     -2.917596   -0.389401    1.351919
  C     -2.510780   -0.575086    2.671238
  H     -3.965634   -0.210156    1.111473
  C     -1.159137   -0.807580    2.953027
  H      0.829302   -1.050807    2.178127
  H     -3.243520   -0.537177    3.476343
  H     -0.837627   -0.962288    3.982954
  C      1.616824   -0.634208   -0.386901
  C      2.358141   -0.647315   -1.566977
  C      2.513625   -0.664127   -3.775478
  C      3.833642   -0.625397   -3.270227
  H      2.192837   -0.688037   -4.814460
  C      3.739984   -0.614305   -1.877370
  H      4.556921   -0.580922   -1.162476
  H      4.740169   -0.609449   -3.866791
  H      2.099665   -0.575760    0.590631
  C     -0.718857   -2.583890   -2.962254
  H     -0.214686   -2.567121   -3.951212
  H     -1.808041   -2.667679   -3.105678
  C     -0.170766   -3.675817   -2.059651
  C     -0.515355   -5.080778   -2.578625
  H     -0.590190   -3.556277   -1.047140
  H      0.920681   -3.569439   -1.962282
  H     -1.604527   -5.212423   -2.650653
  H     -0.119950   -5.853042   -1.904292
  H     -0.087850   -5.249151   -3.576877

 Total Charge           Charge          ....    1
 Multiplicity           Mult            ....    4
 Number of Electrons    NEL             ....  193
 Basis Dimension        Dim             ....  884

ORBITAL ENERGIES
----------------
                 SPIN UP ORBITALS
  NO   OCC          E(Eh)            E(eV)
   0   1.0000    -214.700678     -5842.3025
   1   1.0000     -88.269789     -2401.9431
   2   1.0000     -24.431225      -664.8074
   3   1.0000     -20.797388      -565.9257
   4   1.0000     -20.793991      -565.8333
   5   1.0000     -20.791105      -565.7547
   6   1.0000     -14.171191      -385.6177
   7   1.0000     -14.142878      -384.8473
   8   1.0000     -10.090452      -274.5752
   9   1.0000     -10.082710      -274.3645
  10   1.0000     -10.068459      -273.9767
  11   1.0000     -10.063975      -273.8547
  12   1.0000     -10.056460      -273.6502
  13   1.0000     -10.052659      -273.5468
  14   1.0000     -10.036475      -273.1064
  15   1.0000     -10.034241      -273.0456
  16   1.0000     -10.030196      -272.9355
  17   1.0000     -10.029906      -272.9276
  18   1.0000     -10.028882      -272.8998
  19   1.0000     -10.026313      -272.8299
  20   1.0000     -10.025728      -272.8139
  21   1.0000     -10.022076      -272.7146
  22   1.0000     -10.021204      -272.6908
  23   1.0000     -10.018319      -272.6123
  24   1.0000     -10.013816      -272.4898
  25   1.0000     -10.008103      -272.3343
  26   1.0000     -10.007924      -272.3295
  27   1.0000      -9.983782      -271.6725
  28   1.0000      -7.849500      -213.5958
  29   1.0000      -5.870107      -159.7337
  30   1.0000      -5.866772      -159.6430
  31   1.0000      -5.862407      -159.5242
  32   1.0000      -2.912348       -79.2490
  33   1.0000      -1.910425       -51.9853
  34   1.0000      -1.902465       -51.7687
  35   1.0000      -1.895485       -51.5788
  36   1.0000      -1.021370       -27.7929
  37   1.0000      -0.994925       -27.0733
  38   1.0000      -0.928521       -25.2663
  39   1.0000      -0.909121       -24.7384
  40   1.0000      -0.866413       -23.5763
  41   1.0000      -0.837369       -22.7860
  42   1.0000      -0.819996       -22.3132
  43   1.0000      -0.816522       -22.2187
  44   1.0000      -0.810687       -22.0599
  45   1.0000      -0.802065       -21.8253
  46   1.0000      -0.787126       -21.4188
  47   1.0000      -0.761921       -20.7329
  48   1.0000      -0.724717       -19.7205
  49   1.0000      -0.714171       -19.4336
  50   1.0000      -0.685347       -18.6493
  51   1.0000      -0.674339       -18.3497
  52   1.0000      -0.668203       -18.1827
  53   1.0000      -0.654765       -17.8171
  54   1.0000      -0.640864       -17.4388
  55   1.0000      -0.635394       -17.2899
  56   1.0000      -0.615960       -16.7611
  57   1.0000      -0.602657       -16.3991
  58   1.0000      -0.597790       -16.2667
  59   1.0000      -0.587245       -15.9798
  60   1.0000      -0.559379       -15.2215
  61   1.0000      -0.555459       -15.1148
  62   1.0000      -0.535728       -14.5779
  63   1.0000      -0.532710       -14.4958
  64   1.0000      -0.529677       -14.4133
  65   1.0000      -0.523866       -14.2551
  66   1.0000      -0.520773       -14.1709
  67   1.0000      -0.509470       -13.8634
  68   1.0000      -0.504228       -13.7207
  69   1.0000      -0.501405       -13.6439
  70   1.0000      -0.493351       -13.4248
  71   1.0000      -0.486038       -13.2258
  72   1.0000      -0.483014       -13.1435
  73   1.0000      -0.474036       -12.8992
  74   1.0000      -0.471961       -12.8427
  75   1.0000      -0.468490       -12.7483
  76   1.0000      -0.463465       -12.6115
  77   1.0000      -0.455782       -12.4025
  78   1.0000      -0.451535       -12.2869
  79   1.0000      -0.448856       -12.2140
  80   1.0000      -0.444950       -12.1077
  81   1.0000      -0.441630       -12.0174
  82   1.0000      -0.431720       -11.7477
  83   1.0000      -0.429170       -11.6783
  84   1.0000      -0.425932       -11.5902
  85   1.0000      -0.410794       -11.1783
  86   1.0000      -0.408098       -11.1049
  87   1.0000      -0.400295       -10.8926
  88   1.0000      -0.370161       -10.0726
  89   1.0000      -0.369388       -10.0515
  90   1.0000      -0.366745        -9.9796
  91   1.0000      -0.359717        -9.7884
  92   1.0000      -0.356108        -9.6902
  93   1.0000      -0.349437        -9.5087
  94   1.0000      -0.341399        -9.2899
  95   1.0000      -0.334777        -9.1097
  96   1.0000      -0.320095        -8.7102
  97   1.0000      -0.308782        -8.4024
  98   0.0000      -0.261779        -7.1234
  99   0.0000      -0.241746        -6.5782
 100   0.0000      -0.210205        -5.7200
 101   0.0000      -0.189402        -5.1539
 102   0.0000      -0.176380        -4.7996

                 SPIN DOWN ORBITALS
  NO   OCC          E(Eh)            E(eV)
   0   1.0000    -214.700373     -5842.2942
   1   1.0000     -88.270052     -2401.9502
   2   1.0000     -24.390619      -663.7025
   3   1.0000     -20.768327      -565.1349
   4   1.0000     -20.763049      -564.9913
   5   1.0000     -20.758084      -564.8562
   6   1.0000     -14.172755      -385.6603
   7   1.0000     -14.143674      -384.8689
   8   1.0000     -10.089940      -274.5612
   9   1.0000     -10.082597      -274.3614
  10   1.0000     -10.068262      -273.9713
  11   1.0000     -10.063651      -273.8459
  12   1.0000     -10.056073      -273.6397
  13   1.0000     -10.052245      -273.5355
  14   1.0000     -10.036477      -273.1064
  15   1.0000     -10.034340      -273.0483
  16   1.0000     -10.030172      -272.9349
  17   1.0000     -10.029938      -272.9285
  18   1.0000     -10.028910      -272.9005
  19   1.0000     -10.026098      -272.8240
  20   1.0000     -10.025754      -272.8146
  21   1.0000     -10.022046      -272.7137
  22   1.0000     -10.021180      -272.6902
  23   1.0000     -10.018341      -272.6129
  24   1.0000     -10.013591      -272.4837
  25   1.0000     -10.010749      -272.4063
  26   1.0000     -10.007785      -272.3257
  27   1.0000      -9.983974      -271.6777
  28   1.0000      -7.849714      -213.6016
  29   1.0000      -5.870265      -159.7380
  30   1.0000      -5.867046      -159.6504
  31   1.0000      -5.862927      -159.5384
  32   1.0000      -2.803636       -76.2908
  33   1.0000      -1.808208       -49.2038
  34   1.0000      -1.794639       -48.8346
  35   1.0000      -1.784040       -48.5462
  36   1.0000      -1.021382       -27.7932
  37   1.0000      -0.995184       -27.0803
  38   1.0000      -0.928418       -25.2635
  39   1.0000      -0.909008       -24.7354
  40   1.0000      -0.866416       -23.5764
  41   1.0000      -0.836977       -22.7753
  42   1.0000      -0.820943       -22.3390
  43   1.0000      -0.816223       -22.2106
  44   1.0000      -0.810570       -22.0567
  45   1.0000      -0.802051       -21.8249
  46   1.0000      -0.787013       -21.4157
  47   1.0000      -0.761867       -20.7315
  48   1.0000      -0.724385       -19.7115
  49   1.0000      -0.716161       -19.4877
  50   1.0000      -0.685184       -18.6448
  51   1.0000      -0.674234       -18.3468
  52   1.0000      -0.667869       -18.1736
  53   1.0000      -0.654373       -17.8064
  54   1.0000      -0.640392       -17.4259
  55   1.0000      -0.635955       -17.3052
  56   1.0000      -0.615694       -16.7539
  57   1.0000      -0.602187       -16.3863
  58   1.0000      -0.596896       -16.2424
  59   1.0000      -0.587062       -15.9748
  60   1.0000      -0.558975       -15.2105
  61   1.0000      -0.555196       -15.1077
  62   1.0000      -0.535518       -14.5722
  63   1.0000      -0.531707       -14.4685
  64   1.0000      -0.529373       -14.4050
  65   1.0000      -0.522962       -14.2305
  66   1.0000      -0.520350       -14.1594
  67   1.0000      -0.508089       -13.8258
  68   1.0000      -0.503285       -13.6951
  69   1.0000      -0.501174       -13.6376
  70   1.0000      -0.491750       -13.3812
  71   1.0000      -0.485191       -13.2027
  72   1.0000      -0.481765       -13.1095
  73   1.0000      -0.473313       -12.8795
  74   1.0000      -0.471365       -12.8265
  75   1.0000      -0.467978       -12.7343
  76   1.0000      -0.461461       -12.5570
  77   1.0000      -0.454381       -12.3643
  78   1.0000      -0.450160       -12.2495
  79   1.0000      -0.448652       -12.2084
  80   1.0000      -0.442990       -12.0544
  81   1.0000      -0.436287       -11.8720
  82   1.0000      -0.429874       -11.6975
  83   1.0000      -0.428055       -11.6480
  84   1.0000      -0.424067       -11.5394
  85   1.0000      -0.410539       -11.1713
  86   1.0000      -0.406538       -11.0625
  87   1.0000      -0.399496       -10.8708
  88   1.0000      -0.369161       -10.0454
  89   1.0000      -0.367647       -10.0042
  90   1.0000      -0.355456        -9.6725
  91   1.0000      -0.352885        -9.6025
  92   1.0000      -0.348250        -9.4764
  93   1.0000      -0.339403        -9.2356
  94   1.0000      -0.318959        -8.6793
  95   0.0000      -0.243018        -6.6129
  96   0.0000      -0.236904        -6.4465
  97   0.0000      -0.222850        -6.0641
  98   0.0000      -0.217601        -5.9212
  99   0.0000      -0.213533        -5.8105

MULLIKEN ATOMIC CHARGES AND SPIN POPULATIONS
--------------------------------------------
   0 Cr:    0.411115    3.373668
   1 S :    0.015899   -0.056532
   2 N :   -0.155500   -0.115991
   3 N :   -0.182990   -0.080281
   4 C :    0.107580    0.002552
   5 C :   -0.165543    0.004143
   6 C :   -0.165025    0.000147
   7 C :   -0.137597    0.000866
   8 H :    0.174426    0.000837
   9 C :   -0.111657    0.001725
  10 H :    0.145976    0.000876
  11 C :   -0.089077   -0.001793
  12 H :    0.141994    0.000112
  13 H :    0.144824    0.000085
  14 H :    0.144767    0.000035
  15 C :   -0.011636   -0.001805
  16 C :    0.299492    0.013167
  17 C :   -0.215328   -0.006404
  18 C :   -0.097113    0.001893
  19 C :   -0.117150   -0.002199
  20 H :    0.150992    0.000198
  21 C :   -0.103103    0.001712
  22 H :    0.131899    0.000589
  23 H :    0.147307    0.000144
  24 H :    0.146262   -0.000441
  25 C :   -0.023367    0.039885
  26 C :    0.210113    0.001164
  27 C :   -0.127118    0.031167
  28 C :   -0.081331    0.013611
  29 H :    0.153387   -0.000213
  30 C :   -0.225013    0.016542
  31 H :    0.147034   -0.000744
  32 H :    0.153097   -0.001392
  33 H :    0.146975   -0.004706
  34 C :   -0.350329   -0.273514
  35 H :    0.140463    0.014823
  36 H :    0.171681    0.023267
  37 C :   -0.207147    0.017748
  38 C :   -0.346562   -0.007166
  39 H :    0.102229   -0.004108
  40 H :    0.131940   -0.000910
  41 H :    0.129811    0.000170
  42 H :    0.136847   -0.002906
  43 H :    0.126480   -0.000018
Sum of atomic charges         :    1.0000000

LOEWDIN ATOMIC CHARGES AND SPIN POPULATIONS
-------------------------------------------
   0 Cr:    0.156120    3.034194
   1 S :    0.900832    0.006966
   2 N :    0.185449   -0.033490
   3 N :    0.158964   -0.002065
   4 C :   -0.329658    0.009978
   5 C :   -0.127861   -0.000226
   6 C :   -0.132226   -0.000549
   7 C :   -0.116180    0.001084
   8 H :    0.160072    0.000128
   9 C :   -0.112065    0.000922
  10 H :    0.156461    0.000129
  11 C :   -0.109427   -0.001057
  12 H :    0.157626    0.000137
  13 H :    0.157509    0.000007
  14 H :    0.158414    0.000104
  15 C :   -0.293633    0.005065
  16 C :   -0.190151    0.000835
  17 C :   -0.094380   -0.003535
  18 C :   -0.112607    0.000583
  19 C :   -0.112731   -0.001200
  20 H :    0.162823    0.000036
  21 C :   -0.103143    0.000773
  22 H :    0.155403    0.000101
  23 H :    0.159501    0.000059
  24 H :    0.160339   -0.000235
  25 C :   -0.105394    0.021933
  26 C :   -0.219843    0.019236
  27 C :   -0.153049    0.019177
  28 C :   -0.136346    0.016073
  29 H :    0.149591   -0.000105
  30 C :   -0.080437    0.015375
  31 H :    0.153974    0.000163
  32 H :    0.151646   -0.000251
  33 H :    0.161064   -0.002158
  34 C :   -0.300602   -0.108890
  35 H :    0.154365    0.003941
  36 H :    0.150967    0.008790
  37 C :   -0.301258   -0.001231
  38 C :   -0.297460   -0.007038
  39 H :    0.144968   -0.001887
  40 H :    0.150834   -0.000113
  41 H :    0.124820   -0.000044
  42 H :    0.129441   -0.001617
  43 H :    0.127269   -0.000101

  Mayer bond orders larger than 0.100000
B(  0-Cr,  1-S ) :   0.7049 B(  0-Cr,  2-N ) :   0.7763 B(  0-Cr,  3-N ) :   0.7140
B(  0-Cr, 34-C ) :   0.9539 B(  1-S ,  4-C ) :   0.8871 B(  1-S , 15-C ) :   0.9288
B(  2-N , 16-C ) :   1.0065 B(  2-N , 25-C ) :   1.3918 B(  3-N , 26-C ) :   0.9721
B(  3-N , 27-C ) :   1.3557 B(  4-C ,  5-C ) :   1.2859 B(  4-C ,  6-C ) :   1.3243
B(  5-C ,  7-C ) :   1.4157 B(  5-C ,  8-H ) :   0.9407 B(  6-C ,  9-C ) :   1.4122
B(  6-C , 10-H ) :   0.9596 B(  7-C , 11-C ) :   1.3716 B(  7-C , 12-H ) :   0.9649
B(  9-C , 11-C ) :   1.3931 B(  9-C , 14-H ) :   0.9589 B( 11-C , 13-H ) :   0.9575
B( 15-C , 16-C ) :   1.2796 B( 15-C , 18-C ) :   1.3396 B( 16-C , 17-C ) :   1.3083
B( 17-C , 21-C ) :   1.4335 B( 17-C , 22-H ) :   0.9515 B( 18-C , 19-C ) :   1.4033
B( 18-C , 20-H ) :   0.9570 B( 19-C , 21-C ) :   1.3580 B( 19-C , 23-H ) :   0.9601
B( 21-C , 24-H ) :   0.9551 B( 25-C , 26-C ) :   1.3908 B( 25-C , 33-H ) :   0.8980
B( 26-C , 30-C ) :   1.2479 B( 27-C , 28-C ) :   1.3548 B( 27-C , 29-H ) :   0.9452
B( 28-C , 30-C ) :   1.4733 B( 28-C , 32-H ) :   0.9584 B( 30-C , 31-H ) :   0.9736
B( 34-C , 35-H ) :   0.9144 B( 34-C , 36-H ) :   0.9214 B( 34-C , 37-C ) :   0.9670
B( 37-C , 38-C ) :   0.9545 B( 37-C , 39-H ) :   0.9457 B( 37-C , 40-H ) :   0.9558
B( 38-C , 41-H ) :   0.9675 B( 38-C , 42-H ) :   0.9626 B( 38-C , 43-H ) :   0.9665

Dispersion correction           -0.117829876
FINAL SINGLE POINT ENERGY     -2326.824207271119

DIPOLE MOMENT
-------------
                                X             Y             Z
Electronic contribution:      3.52178      22.16067      -2.84266
Nuclear contribution   :     -3.30582     -22.12696       2.89718
                        -----------------------------------------
Total Dipole Moment    :      0.21596       0.03371       0.05452
                        -----------------------------------------
Magnitude (a.u.)       :      0.22527
Magnitude (Debye)      :      0.57259

Dispersion correction in the Hessian             ... done   (      4.0 sec)

VIBRATIONAL FREQUENCIES
-----------------------

Scaling factor for frequencies =  1.000000000  (already applied!)

   0:         0.00 cm**-1
   1:         0.00 cm**-1
   2:         0.00 cm**-1
   3:         0.00 cm**-1
   4:         0.00 cm**-1
   5:         0.00 cm**-1
   6:        10.51 cm**-1
   7:        15.09 cm**-1
   8:        35.57 cm**-1
   9:        46.77 cm**-1
  10:        56.66 cm**-1
  11:        60.06 cm**-1
  12:        66.82 cm**-1
  13:        95.83 cm**-1
  14:       114.52 cm**-1
  15:       137.67 cm**-1
  16:       146.24 cm**-1
  17:       157.87 cm**-1
  18:       173.27 cm**-1
  19:       196.58 cm**-1
  20:       206.10 cm**-1
  21:       211.20 cm**-1
  22:       247.04 cm**-1
  23:       257.57 cm**-1
  24:       282.84 cm**-1
  25:       288.87 cm**-1
  26:       300.22 cm**-1
  27:       308.49 cm**-1
  28:       345.34 cm**-1
  29:       373.62 cm**-1
  30:       386.50 cm**-1
  31:       394.90 cm**-1
  32:       417.21 cm**-1
  33:       442.75 cm**-1
  34:       453.84 cm**-1
  35:       485.64 cm**-1
  36:       522.75 cm**-1
  37:       525.59 cm**-1
  38:       573.31 cm**-1
  39:       579.98 cm**-1
  40:       587.21 cm**-1
  41:       607.50 cm**-1
  42:       622.65 cm**-1
  43:       668.62 cm**-1
  44:       679.94 cm**-1
  45:       684.47 cm**-1
  46:       688.80 cm**-1
  47:       714.12 cm**-1
  48:       732.39 cm**-1
  49:       734.24 cm**-1
  50:       743.32 cm**-1
  51:       747.67 cm**-1
  52:       778.51 cm**-1
  53:       819.32 cm**-1
  54:       829.00 cm**-1
  55:       838.62 cm**-1
  56:       880.56 cm**-1
  57:       882.36 cm**-1
  58:       883.58 cm**-1
  59:       895.55 cm**-1
  60:       897.90 cm**-1
  61:       901.85 cm**-1
  62:       905.65 cm**-1
  63:       928.49 cm**-1
  64:       946.64 cm**-1
  65:       963.06 cm**-1
  66:       975.03 cm**-1
  67:       977.05 cm**-1
  68:       978.04 cm**-1
  69:       991.26 cm**-1
  70:      1019.53 cm**-1
  71:      1024.56 cm**-1
  72:      1032.42 cm**-1
  73:      1042.56 cm**-1
  74:      1050.10 cm**-1
  75:      1060.35 cm**-1
  76:      1078.84 cm**-1
  77:      1081.87 cm**-1
  78:      1097.91 cm**-1
  79:      1124.16 cm**-1
  80:      1159.55 cm**-1
  81:      1161.30 cm**-1
  82:      1171.74 cm**-1
  83:      1177.25 cm**-1
  84:      1178.36 cm**-1
  85:      1202.69 cm**-1
  86:      1250.84 cm**-1
  87:      1263.44 cm**-1
  88:      1275.06 cm**-1
  89:      1275.94 cm**-1
  90:      1290.26 cm**-1
  91:      1299.85 cm**-1
  92:      1316.72 cm**-1
  93:      1333.81 cm**-1
  94:      1338.89 cm**-1
  95:      1356.01 cm**-1
  96:      1371.45 cm**-1
  97:      1383.59 cm**-1
  98:      1418.31 cm**-1
  99:      1433.82 cm**-1
 100:      1435.58 cm**-1
 101:      1437.32 cm**-1
 102:      1445.48 cm**-1
 103:      1454.42 cm**-1
 104:      1459.02 cm**-1
 105:      1463.79 cm**-1
 106:      1475.05 cm**-1
 107:      1560.11 cm**-1
 108:      1568.88 cm**-1
 109:      1572.29 cm**-1
 110:      1577.00 cm**-1
 111:      1593.02 cm**-1
 112:      2888.57 cm**-1
 113:      2952.30 cm**-1
 114:      2967.15 cm**-1
 115:      2983.25 cm**-1
 116:      3001.63 cm**-1
 117:      3040.05 cm**-1
 118:      3043.50 cm**-1
 119:      3104.77 cm**-1
 120:      3106.65 cm**-1
 121:      3113.43 cm**-1
 122:      3116.52 cm**-1
 123:      3121.41 cm**-1
 124:      3122.29 cm**-1
 125:      3128.82 cm**-1
 126:      3131.24 cm**-1
 127:      3135.73 cm**-1
 128:      3139.76 cm**-1
 129:      3154.10 cm**-1
 130:      3172.52 cm**-1
 131:      3188.99 cm**-1

IR SPECTRUM
-----------

 Mode    freq (cm**-1)   T**2         TX         TY         TZ
-------------------------------------------------------------------
   6:        10.51    0.063021  ( -0.130382   0.096695  -0.191499)
   7:        15.09    0.259064  ( -0.457148  -0.189067  -0.119720)
   8:        35.57    0.036242  (  0.048272   0.155021   0.099399)
   9:        46.77    0.084181  ( -0.120213  -0.166732  -0.204769)
  10:        56.66    0.136143  ( -0.104847  -0.255749  -0.244424)
  11:        60.06    0.121313  ( -0.003681  -0.346969   0.030207)
  12:        66.82    0.324986  ( -0.187502   0.534423  -0.064969)
  13:        95.83    0.014585  (  0.045518   0.078254   0.079932)
  14:       114.52    0.699565  (  0.128844  -0.761813  -0.320319)
  15:       137.67    0.645299  (  0.380110   0.477038  -0.522733)
  16:       146.24    2.651008  ( -0.607854   0.963710   1.163093)
  17:       157.87    0.157725  ( -0.118185   0.371585   0.075375)
  18:       173.27    4.707833  (  0.194518  -2.118686   0.425634)
  19:       196.58    1.079641  ( -0.749623   0.533020   0.483317)
  20:       206.10    0.923911  ( -0.863266   0.129253  -0.402462)
  21:       211.20    0.591245  ( -0.164356   0.591417  -0.463097)
  22:       247.04    0.081030  ( -0.155340  -0.226495   0.074831)
  23:       257.57    2.712739  (  0.157157  -0.221992   1.624426)
  24:       282.84    1.871498  ( -0.494546  -1.260457   0.195372)
  25:       288.87    3.015123  (  0.819177   1.498119  -0.315774)
  26:       300.22    1.691432  ( -0.931801  -0.906123   0.046042)
  27:       308.49    9.744464  ( -2.877993   0.056364   1.207660)
  28:       345.34    8.041134  ( -2.248816  -1.050165  -1.371537)
  29:       373.62   12.124742  (  0.760639  -3.366005  -0.464952)
  30:       386.50    3.294121  ( -1.385215   0.950586  -0.686794)
  31:       394.90    0.611366  ( -0.584258  -0.488988  -0.175782)
  32:       417.21    6.286819  (  2.259925   1.064536   0.215223)
  33:       442.75    6.732999  (  2.246883   1.095957   0.695267)
  34:       453.84    9.238128  ( -0.715648   2.308402   1.843165)
  35:       485.64    2.050809  ( -0.440630  -0.620180   1.213273)
  36:       522.75    7.711186  (  0.007156  -2.568353  -1.055792)
  37:       525.59    1.164426  (  0.192991  -0.056747   1.060170)
  38:       573.31    7.325514  ( -0.432664  -2.661576   0.233085)
  39:       579.98    3.091991  ( -1.738996  -0.229368   0.123593)
  40:       587.21    5.510856  (  2.285804   0.138754   0.516435)
  41:       607.50    0.217895  (  0.425135   0.043938  -0.187683)
  42:       622.65   12.915212  ( -3.410442  -0.225097   1.110597)
  43:       668.62    5.727248  (  0.215998   2.351101   0.391044)
  44:       679.94    3.192916  ( -0.952766   1.217430   0.896113)
  45:       684.47   17.674103  ( -2.879929   1.051623   2.876491)
  46:       688.80    9.738010  (  2.574084   1.509870   0.912357)
  47:       714.12   11.361118  (  0.918531  -2.828416  -1.586658)
  48:       732.39   32.326820  (  4.833964  -0.757408  -2.895849)
  49:       734.24   12.402401  (  2.505206  -1.317735  -2.095213)
  50:       743.32   19.095058  ( -1.534395  -4.085871  -0.215285)
  51:       747.67   80.304008  (  0.164245   8.959532   0.061770)
  52:       778.51    6.755822  (  2.300317   0.025598  -1.209838)
  53:       819.32    0.162849  (  0.279195  -0.255968  -0.139212)
  54:       829.00    1.915173  ( -0.430570  -1.290611   0.253192)
  55:       838.62    0.160298  ( -0.168219  -0.185896   0.312159)
  56:       880.56    0.140927  ( -0.097330   0.087417  -0.351870)
  57:       882.36    3.471723  ( -1.488950  -0.376870  -1.054855)
  58:       883.58    0.039615  (  0.076307  -0.141482   0.117367)
  59:       895.55   16.463534  (  0.944619  -0.976450  -3.823320)
  60:       897.90    2.038927  ( -0.870872   0.153976   1.121071)
  61:       901.85    7.585806  ( -0.418691  -2.698473   0.358814)
  62:       905.65    0.738814  (  0.469909  -0.502132  -0.515619)
  63:       928.49    0.797136  ( -0.227386   0.695643   0.511384)
  64:       946.64    0.245058  (  0.444529   0.106499   0.190026)
  65:       963.06    0.018058  (  0.100303   0.087423  -0.018814)
  66:       975.03    0.031367  ( -0.024746   0.172858  -0.029580)
  67:       977.05   17.338083  (  3.666585   0.821412  -1.794303)
  68:       978.04   51.756444  (  7.083815   0.325148  -1.212552)
  69:       991.26   10.544077  ( -2.675942  -1.232447  -1.365462)
  70:      1019.53    2.604719  (  1.195132   0.890771   0.618794)
  71:      1024.56   11.993883  ( -2.879582  -1.012720  -1.635936)
  72:      1032.42    2.680892  (  0.808708  -0.092365  -1.420687)
  73:      1042.56    3.122770  ( -0.889165   0.302930   1.496793)
  74:      1050.10  110.888825  (  9.140335   0.370059  -5.215953)
  75:      1060.35    0.221583  ( -0.207125  -0.417978  -0.063057)
  76:      1078.84    4.385989  (  0.665278  -1.325421   1.478733)
  77:      1081.87    8.308071  ( -2.633907  -0.129346   1.163560)
  78:      1097.91   37.037188  (  2.131647   5.430481   1.732959)
  79:      1124.16    1.737888  (  0.209758  -0.727082   1.079464)
  80:      1159.55    0.116717  ( -0.175856  -0.196371  -0.217325)
  81:      1161.30    0.048622  ( -0.179525   0.074761  -0.103942)
  82:      1171.74    2.720003  ( -1.589156   0.108447  -0.427583)
  83:      1177.25    3.405229  ( -0.879966  -1.107370  -1.185168)
  84:      1178.36   19.990978  (  0.021015  -0.290904  -4.461604)
  85:      1202.69   19.744541  (  3.917593   0.050081  -2.096306)
  86:      1250.84   57.570256  ( -7.251350  -0.453148   2.186968)
  87:      1263.44   37.613708  ( -5.124584  -0.929522   3.238570)
  88:      1275.06   87.405329  (  5.908312  -0.673454  -7.214127)
  89:      1275.94   49.152012  (  4.563228   0.374744  -5.309287)
  90:      1290.26    1.521765  (  0.850906   0.420880  -0.787772)
  91:      1299.85    1.570288  ( -0.097198  -1.038892   0.693933)
  92:      1316.72    8.441135  ( -1.746689  -0.470928  -2.273420)
  93:      1333.81    6.726934  ( -0.000666   0.734718  -2.487393)
  94:      1338.89    2.289277  (  0.765311  -0.207195  -1.288661)
  95:      1356.01    1.076132  ( -0.869025  -0.561326   0.076422)
  96:      1371.45    8.789702  ( -1.347033  -0.776165   2.524435)
  97:      1383.59   88.958132  ( -1.825007  -0.046931   9.253393)
  98:      1418.31   71.693857  (  8.116625   1.563867  -1.835369)
  99:      1433.82   16.092304  ( -3.814738   1.237593   0.091881)
 100:      1435.58    3.585525  ( -0.868169  -1.392586  -0.944728)
 101:      1437.32    5.692768  (  0.212502  -1.675969   1.684855)
 102:      1445.48    7.092953  ( -2.293717  -0.009508   1.353412)
 103:      1454.42    6.973059  (  0.957525   0.526909   2.403866)
 104:      1459.02   73.251894  ( -6.536188  -0.459369   5.506280)
 105:      1463.79   21.191299  ( -3.343429  -2.939387  -1.171660)
 106:      1475.05  126.580467  ( -8.159782  -0.008833   7.745860)
 107:      1560.11   44.969896  (  6.049895  -0.048915  -2.892451)
 108:      1568.88  110.071773  (  8.006541   1.461669  -6.620468)
 109:      1572.29   13.623361  (  0.663791  -0.143782  -3.627957)
 110:      1577.00   12.903327  ( -3.235250   0.571021   1.452728)
 111:      1593.02  266.610432  ( 13.515419   1.970231  -8.947741)
 112:      2888.57   12.124640  (  0.668443   2.562187  -2.261200)
 113:      2952.30    9.269373  (  0.391265   0.020914   3.019246)
 114:      2967.15   26.810138  (  0.964160   4.656285   2.049278)
 115:      2983.25    1.112567  ( -0.966872   0.000054   0.421575)
 116:      3001.63    6.024029  (  2.448865  -0.037122  -0.160347)
 117:      3040.05   20.923766  (  4.306053  -1.411579  -0.623792)
 118:      3043.50   12.326906  (  0.220123   1.161826  -3.305845)
 119:      3104.77    0.339900  (  0.198232   0.279797   0.471505)
 120:      3106.65    0.148469  (  0.110297   0.368022  -0.029386)
 121:      3113.43    0.130294  ( -0.209279  -0.111788   0.272028)
 122:      3116.52    0.788105  ( -0.648832  -0.127635   0.592311)
 123:      3121.41    0.696862  ( -0.597631  -0.026224   0.582246)
 124:      3122.29    0.872716  ( -0.053262   0.686266  -0.631600)
 125:      3128.82    1.741051  ( -0.888662   0.659202  -0.718877)
 126:      3131.24    1.027374  (  1.003127  -0.027566   0.142655)
 127:      3135.73    2.507161  ( -1.189035  -0.950235  -0.436361)
 128:      3139.76    0.629030  ( -0.282096  -0.231156  -0.704286)
 129:      3154.10    0.042862  (  0.021472   0.130575  -0.159222)
 130:      3172.52    0.185032  ( -0.029342  -0.018065  -0.428771)
 131:      3188.99    0.670732  ( -0.814559   0.041812   0.074007)

--------------------------
THERMOCHEMISTRY AT 298.15K
--------------------------

Temperature         ... 298.15 K
Pressure            ... 1.00 atm
Total Mass          ... 372.45 AMU

Throughout the following assumptions are being made:
  (1) The electronic state is orbitally nondegenerate
      but the spin degeneracy is treated
  (2) There are no thermally accessible electronically excited states
  (3) Hindered rotations indicated by low frequency modes are not
      treated as such but are treated as vibrations and this may
      cause some error
  (4) All equations used are the standard statistical mechanics
      equations for an ideal gas
  (5) All vibrations are strictly harmonic

freq.      10.51  E(vib)   ...       0.58
freq.      15.09  E(vib)   ...       0.57
freq.      35.57  E(vib)   ...       0.54
freq.      46.77  E(vib)   ...       0.53
freq.      56.66  E(vib)   ...       0.52
freq.      60.06  E(vib)   ...       0.51
freq.      66.82  E(vib)   ...       0.50
freq.      95.83  E(vib)   ...       0.47
freq.     114.52  E(vib)   ...       0.44
freq.     137.67  E(vib)   ...       0.42
freq.     146.24  E(vib)   ...       0.41
freq.     157.87  E(vib)   ...       0.40
freq.     173.27  E(vib)   ...       0.38
freq.     196.58  E(vib)   ...       0.36
freq.     206.10  E(vib)   ...       0.35
freq.     211.20  E(vib)   ...       0.34
freq.     247.04  E(vib)   ...       0.31
freq.     257.57  E(vib)   ...       0.30
freq.     282.84  E(vib)   ...       0.28
freq.     288.87  E(vib)   ...       0.27
freq.     300.22  E(vib)   ...       0.26
freq.     308.49  E(vib)   ...       0.26
freq.     345.34  E(vib)   ...       0.23
freq.     373.62  E(vib)   ...       0.21
freq.     386.50  E(vib)   ...       0.20
freq.     394.90  E(vib)   ...       0.20
freq.     417.21  E(vib)   ...       0.18
freq.     442.75  E(vib)   ...       0.17
freq.     453.84  E(vib)   ...       0.16
freq.     485.64  E(vib)   ...       0.15
freq.     522.75  E(vib)   ...       0.13
freq.     525.59  E(vib)   ...       0.13
freq.     573.31  E(vib)   ...       0.11
freq.     579.98  E(vib)   ...       0.11
freq.     587.21  E(vib)   ...       0.10
freq.     607.50  E(vib)   ...       0.10
freq.     622.65  E(vib)   ...       0.09
freq.     668.62  E(vib)   ...       0.08
freq.     679.94  E(vib)   ...       0.08
freq.     684.47  E(vib)   ...       0.07
freq.     688.80  E(vib)   ...       0.07
freq.     714.12  E(vib)   ...       0.07
freq.     732.39  E(vib)   ...       0.06
freq.     734.24  E(vib)   ...       0.06
freq.     743.32  E(vib)   ...       0.06
freq.     747.67  E(vib)   ...       0.06
freq.     778.51  E(vib)   ...       0.05
freq.     819.32  E(vib)   ...       0.05
freq.     829.00  E(vib)   ...       0.04
freq.     838.62  E(vib)   ...       0.04
freq.     880.56  E(vib)   ...       0.04
freq.     882.36  E(vib)   ...       0.04
freq.     883.58  E(vib)   ...       0.04
freq.     895.55  E(vib)   ...       0.03
freq.     897.90  E(vib)   ...       0.03
freq.     901.85  E(vib)   ...       0.03
freq.     905.65  E(vib)   ...       0.03
freq.     928.49  E(vib)   ...       0.03
freq.     946.64  E(vib)   ...       0.03
freq.     963.06  E(vib)   ...       0.03
freq.     975.03  E(vib)   ...       0.03
freq.     977.05  E(vib)   ...       0.03
freq.     978.04  E(vib)   ...       0.03
freq.     991.26  E(vib)   ...       0.02
freq.    1019.53  E(vib)   ...       0.02
freq.    1024.56  E(vib)   ...       0.02
freq.    1032.42  E(vib)   ...       0.02
freq.    1042.56  E(vib)   ...       0.02
freq.    1050.10  E(vib)   ...       0.02
freq.    1060.35  E(vib)   ...       0.02
freq.    1078.84  E(vib)   ...       0.02
freq.    1081.87  E(vib)   ...       0.02
freq.    1097.91  E(vib)   ...       0.02
freq.    1124.16  E(vib)   ...       0.01
freq.    1159.55  E(vib)   ...       0.01
freq.    1161.30  E(vib)   ...       0.01
freq.    1171.74  E(vib)   ...       0.01
freq.    1177.25  E(vib)   ...       0.01
freq.    1178.36  E(vib)   ...       0.01
freq.    1202.69  E(vib)   ...       0.01
freq.    1250.84  E(vib)   ...       0.01
freq.    1263.44  E(vib)   ...       0.01
freq.    1275.06  E(vib)   ...       0.01
freq.    1275.94  E(vib)   ...       0.01
freq.    1290.26  E(vib)   ...       0.01
freq.    1299.85  E(vib)   ...       0.01
freq.    1316.72  E(vib)   ...       0.01
freq.    1333.81  E(vib)   ...       0.01
freq.    1338.89  E(vib)   ...       0.01
freq.    1356.01  E(vib)   ...       0.01
freq.    1371.45  E(vib)   ...       0.01
freq.    1383.59  E(vib)   ...       0.00
freq.    1418.31  E(vib)   ...       0.00
freq.    1433.82  E(vib)   ...       0.00
freq.    1435.58  E(vib)   ...       0.00
freq.    1437.32  E(vib)   ...       0.00
freq.    1445.48  E(vib)   ...       0.00
freq.    1454.42  E(vib)   ...       0.00
freq.    1459.02  E(vib)   ...       0.00
freq.    1463.79  E(vib)   ...       0.00
freq.    1475.05  E(vib)   ...       0.00
freq.    1560.11  E(vib)   ...       0.00
freq.    1568.88  E(vib)   ...       0.00
freq.    1572.29  E(vib)   ...       0.00
freq.    1577.00  E(vib)   ...       0.00
freq.    1593.02  E(vib)   ...       0.00
freq.    2888.57  E(vib)   ...       0.00
freq.    2952.30  E(vib)   ...       0.00
freq.    2967.15  E(vib)   ...       0.00
freq.    2983.25  E(vib)   ...       0.00
freq.    3001.63  E(vib)   ...       0.00
freq.    3040.05  E(vib)   ...       0.00
freq.    3043.50  E(vib)   ...       0.00
freq.    3104.77  E(vib)   ...       0.00
freq.    3106.65  E(vib)   ...       0.00
freq.    3113.43  E(vib)   ...       0.00
freq.    3116.52  E(vib)   ...       0.00
freq.    3121.41  E(vib)   ...       0.00
freq.    3122.29  E(vib)   ...       0.00
freq.    3128.82  E(vib)   ...       0.00
freq.    3131.24  E(vib)   ...       0.00
freq.    3135.73  E(vib)   ...       0.00
freq.    3139.76  E(vib)   ...       0.00
freq.    3154.10  E(vib)   ...       0.00
freq.    3172.52  E(vib)   ...       0.00
freq.    3188.99  E(vib)   ...       0.00

------------
INNER ENERGY
------------

The inner energy is: U= E(el) + E(ZPE) + E(vib) + E(rot) + E(trans)
    E(el)   - is the total energy from the electronic structure calculation
              = E(kin-el) + E(nuc-el) + E(el-el) + E(nuc-nuc)
    E(ZPE)  - the the zero temperature vibrational energy from the frequency calculation
    E(vib)  - the the finite temperature correction to E(ZPE) due to population
              of excited vibrational states
    E(rot)  - is the rotational thermal energy
    E(trans)- is the translational thermal energy

Summary of contributions to the inner energy U:
Electronic energy                ...  -2326.82420727 Eh
Zero point energy                ...      0.34019063 Eh     213.47 kcal/mol

Rotational constants in cm-1:     0.009820     0.005861     0.004517

                             ****ORCA TERMINATED NORMALLY****
TOTAL RUN TIME: 0 days 12 hours 47 minutes 15 seconds 643 msec
