                         Program Version 4.2.1 -  RELEASE  -
|  1> #
|  2> # ORCA calc attempt 1 :-)
|  3> #
|  4> ! BP86 D3BJ RIJCOSX def2-TZVP def2/J Grid6 FinalGrid6 MORead Freq
|  5> %moinp "IM1_4F.ges"
|  6> * xyz 1 4
|  7>   Cr  0.51630107034940     -2.23283403980234     -1.14395890086108
|  8>   S   -1.30116084670019     -2.72743628834954      0.37017833952086
|  9>   N   0.47964464456523     -0.50302751176783     -0.13945964273830
| 10>   N   2.28719958853963     -1.55560178016894     -1.72088812978905
| 11>   C   -2.74371622997408     -3.20324432258750     -0.57446742211526
| 12>   C   -2.99563434571248     -4.57722902652294     -0.66057847176435
| 13>   C   -3.54760666948941     -2.27119161040051     -1.23627863898317
| 14>   C   -4.06326763807742     -5.02232107619038     -1.44324476034870
| 15>   H   -2.37749828713737     -5.28816833098636     -0.11001664070457
| 16>   C   -4.62248505658234     -2.73145000710588     -1.99737383965853
| 17>   H   -3.34098200954824     -1.20522145111504     -1.15423234147873
| 18>   C   -4.87646794213149     -4.10224092021290     -2.10912776819545
| 19>   H   -4.26881919270953     -6.09054525177718     -1.51429564198211
| 20>   H   -5.71629599553901     -4.45255197703969     -2.70904973792054
| 21>   H   -5.26059828523142     -2.01233321815152     -2.51142087527778
| 22>   C   -1.61102656704592     -1.05734848024344      0.91098595556465
| 23>   C   -0.62973582008639     -0.08875592147695      0.61358835654299
| 24>   C   -0.83474994027542      1.22418551176485      1.07209977888230
| 25>   C   -2.74370194886838     -0.74506619192177      1.66469701972451
| 26>   C   -2.92889610439723      0.56228029558943      2.11047074368540
| 27>   H   -3.47628363512089     -1.51997948218572      1.89073245071343
| 28>   C   -1.97233154183077      1.53972417351066      1.81022716550287
| 29>   H   -0.11755520690411      2.00790182196660      0.83072610518013
| 30>   H   -3.81454015490525      0.81778915080561      2.69095093919747
| 31>   H   -2.11876433617167      2.56484316164277      2.15034459532963
| 32>   C   1.58747345062163      0.22247162790454     -0.31294150008055
| 33>   C   2.57052086230231     -0.30567742980562     -1.15252863862507
| 34>   C   3.35579807085044     -1.88918599594361     -2.48443571032644
| 35>   C   4.34113067341287     -0.88059515585347     -2.42431754436710
| 36>   H   3.38257984772248     -2.81734631878761     -3.05075432267451
| 37>   C   3.84972966972717      0.12165420382937     -1.58186309206171
| 38>   H   4.34494853154937      1.04660930596064     -1.30114556367007
| 39>   H   5.29480969221513     -0.89252544049202     -2.94234558106973
| 40>   H   1.72333278205464      1.18145903991439      0.19251831979836
| 41>   C   -0.59828123737093     -1.58067264424972     -2.70581295439986
| 42>   H   0.05942257649679     -1.49951761446629     -3.58152494505327
| 43>   H   -0.98870960955666     -0.58790679039743     -2.44131850873819
| 44>   H   -1.43073882355840     -2.26882811469304     -2.90209886258084
| 45>   C   1.13940674786780     -4.55257916306272     -1.31420620997388
| 46>   C   0.42292977113594     -4.36211388624943     -2.44816071737471
| 47>   H   2.22550751263612     -4.43937218969622     -1.29483603667683
| 48>   H   0.67591197972339     -4.95771686122951     -0.41128651239071
| 49>   H   0.89656386404671     -4.06424054736104     -3.38472286680802
| 50>   H   -0.64730391089192     -4.57329325259457     -2.48706739095345
| 51> *
| 52>
| 53>                          ****END OF INPUT****

CARTESIAN COORDINATES (ANGSTROEM)
---------------------------------
  Cr     0.516301   -2.232834   -1.143959
  S     -1.301161   -2.727436    0.370178
  N      0.479645   -0.503028   -0.139460
  N      2.287200   -1.555602   -1.720888
  C     -2.743716   -3.203244   -0.574467
  C     -2.995634   -4.577229   -0.660578
  C     -3.547607   -2.271192   -1.236279
  C     -4.063268   -5.022321   -1.443245
  H     -2.377498   -5.288168   -0.110017
  C     -4.622485   -2.731450   -1.997374
  H     -3.340982   -1.205221   -1.154232
  C     -4.876468   -4.102241   -2.109128
  H     -4.268819   -6.090545   -1.514296
  H     -5.716296   -4.452552   -2.709050
  H     -5.260598   -2.012333   -2.511421
  C     -1.611027   -1.057348    0.910986
  C     -0.629736   -0.088756    0.613588
  C     -0.834750    1.224186    1.072100
  C     -2.743702   -0.745066    1.664697
  C     -2.928896    0.562280    2.110471
  H     -3.476284   -1.519979    1.890732
  C     -1.972332    1.539724    1.810227
  H     -0.117555    2.007902    0.830726
  H     -3.814540    0.817789    2.690951
  H     -2.118764    2.564843    2.150345
  C      1.587473    0.222472   -0.312942
  C      2.570521   -0.305677   -1.152529
  C      3.355798   -1.889186   -2.484436
  C      4.341131   -0.880595   -2.424318
  H      3.382580   -2.817346   -3.050754
  C      3.849730    0.121654   -1.581863
  H      4.344949    1.046609   -1.301146
  H      5.294810   -0.892525   -2.942346
  H      1.723333    1.181459    0.192518
  C     -0.598281   -1.580673   -2.705813
  H      0.059423   -1.499518   -3.581525
  H     -0.988710   -0.587907   -2.441319
  H     -1.430739   -2.268828   -2.902099
  C      1.139407   -4.552579   -1.314206
  C      0.422930   -4.362114   -2.448161
  H      2.225508   -4.439372   -1.294836
  H      0.675912   -4.957717   -0.411287
  H      0.896564   -4.064241   -3.384723
  H     -0.647304   -4.573293   -2.487067

 Total Charge           Charge          ....    1
 Multiplicity           Mult            ....    4
 Number of Electrons    NEL             ....  193
 Basis Dimension        Dim             ....  884

ORBITAL ENERGIES
----------------
                 SPIN UP ORBITALS
  NO   OCC          E(Eh)            E(eV)
   0   1.0000    -214.695630     -5842.1651
   1   1.0000     -88.266940     -2401.8656
   2   1.0000     -24.429279      -664.7545
   3   1.0000     -20.794342      -565.8428
   4   1.0000     -20.792647      -565.7967
   5   1.0000     -20.789762      -565.7182
   6   1.0000     -14.160610      -385.3298
   7   1.0000     -14.138005      -384.7147
   8   1.0000     -10.084031      -274.4004
   9   1.0000     -10.076604      -274.1983
  10   1.0000     -10.064474      -273.8683
  11   1.0000     -10.063718      -273.8477
  12   1.0000     -10.057410      -273.6760
  13   1.0000     -10.054565      -273.5986
  14   1.0000     -10.052517      -273.5429
  15   1.0000     -10.046779      -273.3867
  16   1.0000     -10.032842      -273.0075
  17   1.0000     -10.030749      -272.9506
  18   1.0000     -10.029558      -272.9181
  19   1.0000     -10.028001      -272.8758
  20   1.0000     -10.025755      -272.8147
  21   1.0000     -10.022265      -272.7197
  22   1.0000     -10.022157      -272.7168
  23   1.0000     -10.021459      -272.6978
  24   1.0000     -10.021008      -272.6855
  25   1.0000     -10.017995      -272.6035
  26   1.0000     -10.009977      -272.3853
  27   1.0000      -9.990736      -271.8618
  28   1.0000      -7.846864      -213.5240
  29   1.0000      -5.867441      -159.6612
  30   1.0000      -5.864098      -159.5702
  31   1.0000      -5.859776      -159.4526
  32   1.0000      -2.906450       -79.0885
  33   1.0000      -1.901122       -51.7322
  34   1.0000      -1.897405       -51.6310
  35   1.0000      -1.890712       -51.4489
  36   1.0000      -1.015416       -27.6309
  37   1.0000      -0.989116       -26.9152
  38   1.0000      -0.925767       -25.1914
  39   1.0000      -0.906692       -24.6724
  40   1.0000      -0.864268       -23.5179
  41   1.0000      -0.851471       -23.1697
  42   1.0000      -0.832007       -22.6401
  43   1.0000      -0.812451       -22.1079
  44   1.0000      -0.808532       -22.0013
  45   1.0000      -0.801828       -21.8189
  46   1.0000      -0.782945       -21.3050
  47   1.0000      -0.759203       -20.6590
  48   1.0000      -0.721173       -19.6241
  49   1.0000      -0.716563       -19.4987
  50   1.0000      -0.682501       -18.5718
  51   1.0000      -0.676643       -18.4124
  52   1.0000      -0.673108       -18.3162
  53   1.0000      -0.664061       -18.0700
  54   1.0000      -0.651801       -17.7364
  55   1.0000      -0.637305       -17.3419
  56   1.0000      -0.611090       -16.6286
  57   1.0000      -0.598376       -16.2826
  58   1.0000      -0.595383       -16.2012
  59   1.0000      -0.584303       -15.8997
  60   1.0000      -0.573607       -15.6086
  61   1.0000      -0.555668       -15.1205
  62   1.0000      -0.551121       -14.9968
  63   1.0000      -0.534375       -14.5411
  64   1.0000      -0.529953       -14.4208
  65   1.0000      -0.527187       -14.3455
  66   1.0000      -0.519335       -14.1318
  67   1.0000      -0.517094       -14.0708
  68   1.0000      -0.506902       -13.7935
  69   1.0000      -0.502839       -13.6829
  70   1.0000      -0.499953       -13.6044
  71   1.0000      -0.490056       -13.3351
  72   1.0000      -0.486544       -13.2395
  73   1.0000      -0.475729       -12.9452
  74   1.0000      -0.471195       -12.8219
  75   1.0000      -0.467950       -12.7336
  76   1.0000      -0.466283       -12.6882
  77   1.0000      -0.461994       -12.5715
  78   1.0000      -0.459638       -12.5074
  79   1.0000      -0.453908       -12.3515
  80   1.0000      -0.445275       -12.1166
  81   1.0000      -0.440291       -11.9809
  82   1.0000      -0.438363       -11.9285
  83   1.0000      -0.430081       -11.7031
  84   1.0000      -0.428271       -11.6538
  85   1.0000      -0.425245       -11.5715
  86   1.0000      -0.417545       -11.3620
  87   1.0000      -0.407013       -11.0754
  88   1.0000      -0.371975       -10.1220
  89   1.0000      -0.365667        -9.9503
  90   1.0000      -0.365059        -9.9337
  91   1.0000      -0.356615        -9.7040
  92   1.0000      -0.354551        -9.6478
  93   1.0000      -0.345646        -9.4055
  94   1.0000      -0.336155        -9.1472
  95   1.0000      -0.330156        -8.9840
  96   1.0000      -0.315606        -8.5881
  97   1.0000      -0.304958        -8.2983
  98   0.0000      -0.249657        -6.7935
  99   0.0000      -0.221649        -6.0314
 100   0.0000      -0.212120        -5.7721
 101   0.0000      -0.186934        -5.0867
 102   0.0000      -0.176110        -4.7922

                 SPIN DOWN ORBITALS
  NO   OCC          E(Eh)            E(eV)
   0   1.0000    -214.695316     -5842.1565
   1   1.0000     -88.267204     -2401.8727
   2   1.0000     -24.389492      -663.6718
   3   1.0000     -20.764701      -565.0362
   4   1.0000     -20.762247      -564.9695
   5   1.0000     -20.758596      -564.8701
   6   1.0000     -14.161694      -385.3593
   7   1.0000     -14.138848      -384.7376
   8   1.0000     -10.083582      -274.3882
   9   1.0000     -10.076524      -274.1961
  10   1.0000     -10.064296      -273.8634
  11   1.0000     -10.063414      -273.8394
  12   1.0000     -10.056471      -273.6505
  13   1.0000     -10.054956      -273.6093
  14   1.0000     -10.052233      -273.5352
  15   1.0000     -10.046411      -273.3767
  16   1.0000     -10.032856      -273.0079
  17   1.0000     -10.030736      -272.9502
  18   1.0000     -10.029616      -272.9197
  19   1.0000     -10.027997      -272.8757
  20   1.0000     -10.025743      -272.8143
  21   1.0000     -10.022169      -272.7171
  22   1.0000     -10.022161      -272.7169
  23   1.0000     -10.021456      -272.6977
  24   1.0000     -10.020994      -272.6851
  25   1.0000     -10.017974      -272.6029
  26   1.0000     -10.009760      -272.3794
  27   1.0000      -9.993285      -271.9311
  28   1.0000      -7.847078      -213.5299
  29   1.0000      -5.867601      -159.6655
  30   1.0000      -5.864354      -159.5772
  31   1.0000      -5.860314      -159.4673
  32   1.0000      -2.800019       -76.1924
  33   1.0000      -1.798028       -48.9268
  34   1.0000      -1.792188       -48.7679
  35   1.0000      -1.784279       -48.5527
  36   1.0000      -1.015293       -27.6275
  37   1.0000      -0.989326       -26.9209
  38   1.0000      -0.925648       -25.1882
  39   1.0000      -0.906572       -24.6691
  40   1.0000      -0.864231       -23.5169
  41   1.0000      -0.850304       -23.1380
  42   1.0000      -0.831628       -22.6297
  43   1.0000      -0.812100       -22.0984
  44   1.0000      -0.808396       -21.9976
  45   1.0000      -0.801771       -21.8173
  46   1.0000      -0.782822       -21.3017
  47   1.0000      -0.759138       -20.6572
  48   1.0000      -0.722219       -19.6526
  49   1.0000      -0.718023       -19.5384
  50   1.0000      -0.682308       -18.5665
  51   1.0000      -0.674984       -18.3673
  52   1.0000      -0.672994       -18.3131
  53   1.0000      -0.663701       -18.0602
  54   1.0000      -0.651420       -17.7260
  55   1.0000      -0.636820       -17.3288
  56   1.0000      -0.610790       -16.6204
  57   1.0000      -0.597897       -16.2696
  58   1.0000      -0.594524       -16.1778
  59   1.0000      -0.584009       -15.8917
  60   1.0000      -0.572613       -15.5816
  61   1.0000      -0.555273       -15.1098
  62   1.0000      -0.550697       -14.9852
  63   1.0000      -0.534182       -14.5358
  64   1.0000      -0.529173       -14.3995
  65   1.0000      -0.526876       -14.3370
  66   1.0000      -0.518770       -14.1165
  67   1.0000      -0.516369       -14.0511
  68   1.0000      -0.505890       -13.7660
  69   1.0000      -0.501700       -13.6520
  70   1.0000      -0.499083       -13.5807
  71   1.0000      -0.487869       -13.2756
  72   1.0000      -0.484718       -13.1898
  73   1.0000      -0.474384       -12.9086
  74   1.0000      -0.469682       -12.7807
  75   1.0000      -0.467468       -12.7204
  76   1.0000      -0.464293       -12.6341
  77   1.0000      -0.460852       -12.5404
  78   1.0000      -0.457758       -12.4562
  79   1.0000      -0.452236       -12.3060
  80   1.0000      -0.444957       -12.1079
  81   1.0000      -0.438014       -11.9190
  82   1.0000      -0.433488       -11.7958
  83   1.0000      -0.428337       -11.6556
  84   1.0000      -0.425682       -11.5834
  85   1.0000      -0.422308       -11.4916
  86   1.0000      -0.412625       -11.2281
  87   1.0000      -0.405578       -11.0363
  88   1.0000      -0.364853        -9.9281
  89   1.0000      -0.364377        -9.9152
  90   1.0000      -0.357737        -9.7345
  91   1.0000      -0.354436        -9.6447
  92   1.0000      -0.347593        -9.4585
  93   1.0000      -0.337440        -9.1822
  94   1.0000      -0.313203        -8.5227
  95   0.0000      -0.248773        -6.7695
  96   0.0000      -0.236325        -6.4307
  97   0.0000      -0.228862        -6.2277
  98   0.0000      -0.216555        -5.8928
  99   0.0000      -0.194562        -5.2943

MULLIKEN ATOMIC CHARGES AND SPIN POPULATIONS
--------------------------------------------
   0 Cr:    0.221889    3.319243
   1 S :   -0.004223   -0.053738
   2 N :   -0.126642   -0.096051
   3 N :   -0.129395   -0.087248
   4 C :    0.206983   -0.002998
   5 C :   -0.235906    0.003071
   6 C :   -0.214068    0.008774
   7 C :   -0.090791   -0.000092
   8 H :    0.147977    0.000638
   9 C :   -0.089776    0.000220
  10 H :    0.166019    0.000099
  11 C :   -0.109804    0.001567
  12 H :    0.144730    0.000133
  13 H :    0.144526   -0.000087
  14 H :    0.143050    0.000157
  15 C :    0.017344   -0.006397
  16 C :    0.255674    0.019219
  17 C :   -0.231202   -0.002200
  18 C :   -0.118592    0.000425
  19 C :   -0.112835   -0.000953
  20 H :    0.153075    0.000067
  21 C :   -0.102345    0.000603
  22 H :    0.129751    0.000400
  23 H :    0.145770    0.000123
  24 H :    0.144486   -0.000190
  25 C :   -0.032247    0.028065
  26 C :    0.225118    0.001370
  27 C :   -0.169172    0.027415
  28 C :   -0.076387    0.014618
  29 H :    0.151667   -0.000344
  30 C :   -0.230874    0.008508
  31 H :    0.145672   -0.000394
  32 H :    0.150580   -0.001157
  33 H :    0.142463   -0.002812
  34 C :   -0.533552   -0.264013
  35 H :    0.168118    0.019702
  36 H :    0.144801    0.027709
  37 H :    0.169620    0.020858
  38 C :   -0.273816   -0.049597
  39 C :   -0.154520    0.054811
  40 H :    0.182060    0.005904
  41 H :    0.174511    0.005835
  42 H :    0.166607   -0.000663
  43 H :    0.193656   -0.000598
Sum of atomic charges         :    1.0000000

LOEWDIN ATOMIC CHARGES AND SPIN POPULATIONS
-------------------------------------------
   0 Cr:   -0.089107    2.928920
   1 S :    0.923580    0.002378
   2 N :    0.185720   -0.018470
   3 N :    0.171595   -0.005282
   4 C :   -0.326899    0.009058
   5 C :   -0.141017    0.001440
   6 C :   -0.124295    0.001305
   7 C :   -0.116837    0.000374
   8 H :    0.155014    0.000165
   9 C :   -0.112210    0.000730
  10 H :    0.161909    0.000203
  11 C :   -0.110007    0.001107
  12 H :    0.157844    0.000099
  13 H :    0.157516    0.000003
  14 H :    0.158007    0.000118
  15 C :   -0.291264    0.003890
  16 C :   -0.189588    0.000591
  17 C :   -0.093878   -0.002102
  18 C :   -0.115162   -0.000038
  19 C :   -0.114155   -0.000675
  20 H :    0.162186    0.000040
  21 C :   -0.104940    0.000281
  22 H :    0.155491    0.000062
  23 H :    0.158839    0.000044
  24 H :    0.159709   -0.000129
  25 C :   -0.105146    0.019662
  26 C :   -0.216956    0.015571
  27 C :   -0.162905    0.012082
  28 C :   -0.140026    0.014210
  29 H :    0.146594   -0.000248
  30 C :   -0.080220    0.008803
  31 H :    0.153282    0.000104
  32 H :    0.150740   -0.000144
  33 H :    0.159396   -0.001171
  34 C :   -0.367499   -0.103872
  35 H :    0.131533    0.008559
  36 H :    0.134292    0.012331
  37 H :    0.129114    0.009110
  38 C :   -0.182275    0.008606
  39 C :   -0.140045    0.063945
  40 H :    0.154910    0.002786
  41 H :    0.150993    0.002655
  42 H :    0.153890    0.001393
  43 H :    0.152274    0.001508

  Mayer bond orders larger than 0.100000
B(  0-Cr,  1-S ) :   0.7102 B(  0-Cr,  2-N ) :   0.6817 B(  0-Cr,  3-N ) :   0.7460
B(  0-Cr, 34-C ) :   0.9784 B(  0-Cr, 38-C ) :   0.3403 B(  0-Cr, 39-C ) :   0.2882
B(  1-S ,  4-C ) :   0.8563 B(  1-S , 15-C ) :   0.9569 B(  2-N , 16-C ) :   1.0264
B(  2-N , 25-C ) :   1.3963 B(  3-N , 26-C ) :   0.9976 B(  3-N , 27-C ) :   1.3327
B(  4-C ,  5-C ) :   1.2796 B(  4-C ,  6-C ) :   1.3009 B(  5-C ,  7-C ) :   1.4072
B(  5-C ,  8-H ) :   0.9701 B(  6-C ,  9-C ) :   1.4034 B(  6-C , 10-H ) :   0.9604
B(  7-C , 11-C ) :   1.3961 B(  7-C , 12-H ) :   0.9586 B(  9-C , 11-C ) :   1.3795
B(  9-C , 14-H ) :   0.9589 B( 11-C , 13-H ) :   0.9580 B( 15-C , 16-C ) :   1.2987
B( 15-C , 18-C ) :   1.3277 B( 16-C , 17-C ) :   1.3091 B( 17-C , 21-C ) :   1.4351
B( 17-C , 22-H ) :   0.9559 B( 18-C , 19-C ) :   1.3998 B( 18-C , 20-H ) :   0.9551
B( 19-C , 21-C ) :   1.3618 B( 19-C , 23-H ) :   0.9593 B( 21-C , 24-H ) :   0.9557
B( 25-C , 26-C ) :   1.3645 B( 25-C , 33-H ) :   0.9153 B( 26-C , 30-C ) :   1.2521
B( 27-C , 28-C ) :   1.3688 B( 27-C , 29-H ) :   0.9486 B( 28-C , 30-C ) :   1.4505
B( 28-C , 32-H ) :   0.9614 B( 30-C , 31-H ) :   0.9747 B( 34-C , 35-H ) :   0.9388
B( 34-C , 36-H ) :   0.9385 B( 34-C , 37-H ) :   0.9324 B( 38-C , 39-C ) :   1.5565
B( 38-C , 40-H ) :   0.9455 B( 38-C , 41-H ) :   0.9466 B( 39-C , 42-H ) :   0.9468
B( 39-C , 43-H ) :   0.9462

Dispersion correction           -0.122059210
FINAL SINGLE POINT ENERGY     -2326.818250814378

DIPOLE MOMENT
-------------
                                X             Y             Z
Electronic contribution:      8.23342       0.66419       7.28078
Nuclear contribution   :     -8.07938      -0.96501      -7.45278
                        -----------------------------------------
Total Dipole Moment    :      0.15403      -0.30082      -0.17200
                        -----------------------------------------
Magnitude (a.u.)       :      0.37922
Magnitude (Debye)      :      0.96389

Dispersion correction in the Hessian             ... done   (      4.1 sec)

VIBRATIONAL FREQUENCIES
-----------------------

Scaling factor for frequencies =  1.000000000  (already applied!)

   0:         0.00 cm**-1
   1:         0.00 cm**-1
   2:         0.00 cm**-1
   3:         0.00 cm**-1
   4:         0.00 cm**-1
   5:         0.00 cm**-1
   6:        22.03 cm**-1
   7:        31.81 cm**-1
   8:        47.77 cm**-1
   9:        61.29 cm**-1
  10:        61.75 cm**-1
  11:        66.77 cm**-1
  12:        78.62 cm**-1
  13:        95.64 cm**-1
  14:       112.88 cm**-1
  15:       126.64 cm**-1
  16:       134.69 cm**-1
  17:       159.50 cm**-1
  18:       169.97 cm**-1
  19:       178.19 cm**-1
  20:       186.17 cm**-1
  21:       206.56 cm**-1
  22:       210.19 cm**-1
  23:       216.22 cm**-1
  24:       243.65 cm**-1
  25:       261.67 cm**-1
  26:       286.61 cm**-1
  27:       303.58 cm**-1
  28:       309.26 cm**-1
  29:       346.14 cm**-1
  30:       372.98 cm**-1
  31:       377.31 cm**-1
  32:       387.48 cm**-1
  33:       396.10 cm**-1
  34:       421.44 cm**-1
  35:       444.50 cm**-1
  36:       453.18 cm**-1
  37:       488.46 cm**-1
  38:       508.44 cm**-1
  39:       529.28 cm**-1
  40:       574.98 cm**-1
  41:       576.11 cm**-1
  42:       594.81 cm**-1
  43:       606.57 cm**-1
  44:       607.93 cm**-1
  45:       621.75 cm**-1
  46:       669.40 cm**-1
  47:       680.67 cm**-1
  48:       685.83 cm**-1
  49:       691.49 cm**-1
  50:       717.10 cm**-1
  51:       733.73 cm**-1
  52:       743.93 cm**-1
  53:       746.41 cm**-1
  54:       777.42 cm**-1
  55:       807.23 cm**-1
  56:       822.44 cm**-1
  57:       822.88 cm**-1
  58:       840.60 cm**-1
  59:       877.59 cm**-1
  60:       882.39 cm**-1
  61:       894.28 cm**-1
  62:       900.18 cm**-1
  63:       911.79 cm**-1
  64:       927.20 cm**-1
  65:       943.13 cm**-1
  66:       949.52 cm**-1
  67:       961.66 cm**-1
  68:       976.58 cm**-1
  69:       978.81 cm**-1
  70:       981.21 cm**-1
  71:       991.75 cm**-1
  72:      1013.25 cm**-1
  73:      1019.75 cm**-1
  74:      1032.80 cm**-1
  75:      1041.73 cm**-1
  76:      1047.98 cm**-1
  77:      1061.68 cm**-1
  78:      1078.14 cm**-1
  79:      1085.82 cm**-1
  80:      1124.17 cm**-1
  81:      1125.40 cm**-1
  82:      1159.66 cm**-1
  83:      1160.56 cm**-1
  84:      1171.33 cm**-1
  85:      1175.57 cm**-1
  86:      1202.37 cm**-1
  87:      1202.79 cm**-1
  88:      1249.30 cm**-1
  89:      1264.35 cm**-1
  90:      1273.77 cm**-1
  91:      1299.08 cm**-1
  92:      1314.36 cm**-1
  93:      1317.94 cm**-1
  94:      1333.08 cm**-1
  95:      1338.31 cm**-1
  96:      1376.45 cm**-1
  97:      1385.41 cm**-1
  98:      1389.80 cm**-1
  99:      1423.38 cm**-1
 100:      1431.09 cm**-1
 101:      1433.78 cm**-1
 102:      1437.73 cm**-1
 103:      1456.48 cm**-1
 104:      1463.35 cm**-1
 105:      1477.23 cm**-1
 106:      1558.55 cm**-1
 107:      1567.88 cm**-1
 108:      1572.36 cm**-1
 109:      1576.13 cm**-1
 110:      1579.78 cm**-1
 111:      1591.51 cm**-1
 112:      2955.72 cm**-1
 113:      3050.65 cm**-1
 114:      3054.21 cm**-1
 115:      3062.93 cm**-1
 116:      3065.59 cm**-1
 117:      3097.20 cm**-1
 118:      3102.38 cm**-1
 119:      3113.89 cm**-1
 120:      3115.79 cm**-1
 121:      3120.63 cm**-1
 122:      3121.99 cm**-1
 123:      3129.85 cm**-1
 124:      3130.69 cm**-1
 125:      3130.92 cm**-1
 126:      3136.04 cm**-1
 127:      3139.17 cm**-1
 128:      3150.54 cm**-1
 129:      3158.73 cm**-1
 130:      3171.93 cm**-1
 131:      3188.15 cm**-1

IR SPECTRUM
-----------

 Mode    freq (cm**-1)   T**2         TX         TY         TZ
-------------------------------------------------------------------
   6:        22.03    0.253986  ( -0.376015  -0.272949  -0.195185)
   7:        31.81    0.206332  (  0.228968   0.387164  -0.063323)
   8:        47.77    0.431294  (  0.523083   0.131015   0.374851)
   9:        61.29    0.094865  (  0.149862  -0.267885   0.025384)
  10:        61.75    0.743148  ( -0.211694   0.135103  -0.824670)
  11:        66.77    0.291399  (  0.195908   0.104542  -0.492027)
  12:        78.62    0.544611  (  0.514979  -0.108434   0.517349)
  13:        95.64    0.437684  ( -0.634346  -0.135508   0.130101)
  14:       112.88    0.155027  ( -0.041103  -0.174630   0.350488)
  15:       126.64    0.271535  ( -0.010886  -0.223523  -0.470589)
  16:       134.69    0.765276  ( -0.459949   0.428986   0.608024)
  17:       159.50    1.042583  ( -0.770470   0.093549   0.663482)
  18:       169.97    1.201104  (  0.535660  -0.955529  -0.033712)
  19:       178.19    4.791328  (  0.234886  -1.283120   1.757771)
  20:       186.17    2.097258  ( -0.183129   1.362504   0.455307)
  21:       206.56    0.687411  (  0.134790   0.516952   0.634037)
  22:       210.19    0.623633  ( -0.643910   0.072576  -0.451383)
  23:       216.22    0.377651  ( -0.507034  -0.151921   0.312230)
  24:       243.65    2.405186  ( -0.569245  -0.551059  -1.333222)
  25:       261.67    1.337293  (  0.423728  -0.987517  -0.427268)
  26:       286.61    0.365218  ( -0.387676  -0.088409  -0.455093)
  27:       303.58   13.185160  ( -3.515716  -0.829906   0.368989)
  28:       309.26    1.992090  ( -0.460880   0.220577  -1.315684)
  29:       346.14    4.586576  ( -0.870364  -1.903638  -0.452994)
  30:       372.98    0.488409  ( -0.268541  -0.101909  -0.637110)
  31:       377.31    4.766703  (  0.211556  -0.547863   2.102806)
  32:       387.48    5.256570  (  0.458311   1.655579  -1.518414)
  33:       396.10    0.984491  (  0.718513   0.654548   0.199493)
  34:       421.44    7.858207  (  2.470595   1.173898   0.613459)
  35:       444.50    7.543158  (  1.902674   1.635664   1.116957)
  36:       453.18    8.154480  ( -0.399331   0.167674   2.822570)
  37:       488.46    2.646303  ( -1.377009   0.863031   0.072992)
  38:       508.44    2.845467  (  1.280314   0.006035   1.098283)
  39:       529.28    0.989310  (  0.143699   0.855731   0.486194)
  40:       574.98    4.712538  ( -1.625877  -0.099248  -1.434995)
  41:       576.11    4.199122  (  0.368440  -1.559964   1.276670)
  42:       594.81    6.037815  ( -1.545579   1.443916   1.250643)
  43:       606.57    2.411691  ( -1.485845  -0.410298   0.188713)
  44:       607.93    0.084131  ( -0.280639  -0.072698   0.009392)
  45:       621.75   17.006775  ( -3.235464  -2.437199   0.773700)
  46:       669.40    5.763362  ( -1.240787   0.544874  -1.981646)
  47:       680.67    1.788983  ( -0.663296  -0.189901  -1.145844)
  48:       685.83   18.294440  ( -2.778077   0.312089   3.237179)
  49:       691.49    9.957798  (  2.586378   1.545386   0.938204)
  50:       717.10   14.688568  ( -0.039325   0.834300  -3.740450)
  51:       733.73   40.006490  (  4.544666   0.203042  -4.394459)
  52:       743.93    1.794412  (  0.424273   1.170197  -0.495020)
  53:       746.41   91.359559  (  4.479029  -3.297852   7.773161)
  54:       777.42    7.233640  ( -2.264415  -0.231094   1.432710)
  55:       807.23    0.562454  (  0.682935   0.199894   0.236846)
  56:       822.44    0.599670  (  0.709547   0.179784  -0.252766)
  57:       822.88    0.925452  ( -0.733299   0.383057  -0.490909)
  58:       840.60    0.246497  ( -0.352069   0.316289  -0.150017)
  59:       877.59    0.053163  ( -0.023396   0.024748   0.228041)
  60:       882.39    6.860558  (  1.229372   2.231645   0.607424)
  61:       894.28   24.157593  (  2.043544  -3.134572  -3.186845)
  62:       900.18    1.044489  (  0.803563  -0.321271  -0.543655)
  63:       911.79    8.190510  (  2.217548  -1.195808   1.357584)
  64:       927.20    0.813402  ( -0.083574   0.140898   0.886885)
  65:       943.13    9.186408  ( -0.288972   2.065070   2.199634)
  66:       949.52    0.438020  ( -0.470481  -0.462987   0.048071)
  67:       961.66    0.025105  ( -0.010235   0.113004   0.110588)
  68:       976.58    0.092402  (  0.080875   0.262627   0.129956)
  69:       978.81   35.102860  ( -0.802276  -5.766106  -1.100564)
  70:       981.21   65.074676  ( -7.524995   0.230827   2.897558)
  71:       991.75    9.610263  (  2.072663   2.012360   1.124605)
  72:      1013.25    0.530259  ( -0.372577   0.569485   0.259098)
  73:      1019.75    3.612469  (  1.408384   1.085283   0.671629)
  74:      1032.80    2.625735  ( -1.017134   0.703219   1.047213)
  75:      1041.73    3.077800  (  1.084911  -0.761097  -1.149565)
  76:      1047.98  108.722386  ( -9.383443  -0.488850   4.520444)
  77:      1061.68    0.197270  ( -0.132867   0.258486  -0.335860)
  78:      1078.14    5.466365  (  0.853950  -2.060412   0.701313)
  79:      1085.82    5.132184  (  2.071943   0.545870  -0.735705)
  80:      1124.17    1.128578  ( -0.951205   0.300529  -0.365335)
  81:      1125.40    3.408331  ( -1.559074  -0.988352   0.027919)
  82:      1159.66    0.041447  (  0.100429   0.047058   0.170724)
  83:      1160.56    0.216608  ( -0.072933   0.459013   0.024409)
  84:      1171.33    2.251896  ( -1.179086  -0.822845   0.429626)
  85:      1175.57   24.214459  (  0.878851  -3.967642  -2.774868)
  86:      1202.37    9.088629  ( -2.513973  -1.035100   1.302742)
  87:      1202.79    7.506422  ( -2.382784  -1.179209   0.661987)
  88:      1249.30   44.539613  (  5.867131   2.753443  -1.592149)
  89:      1264.35   40.037241  ( -5.902993  -0.342978   2.252615)
  90:      1273.77  137.871999  (  8.799186  -3.836749  -6.762077)
  91:      1299.08    1.610849  ( -0.537770   0.959780  -0.632831)
  92:      1314.36    9.419177  ( -1.446149  -2.502786  -1.031451)
  93:      1317.94    3.663382  ( -1.813560  -0.471100   0.390446)
  94:      1333.08    5.748445  (  1.247849  -1.884883  -0.799084)
  95:      1338.31    1.768154  ( -0.741456   0.363998   1.042067)
  96:      1376.45   14.186433  (  2.989158  -1.309278  -1.880734)
  97:      1385.41   77.028448  (  3.992999  -5.684913  -5.363410)
  98:      1389.80    5.113893  (  1.251281   1.682633  -0.846720)
  99:      1423.38   53.807478  ( -6.624602  -2.995132   0.975354)
 100:      1431.09   12.376472  (  1.234029  -1.011679   3.135307)
 101:      1433.78   15.394991  (  2.584596   2.384881  -1.739884)
 102:      1437.73    5.177227  (  1.492917  -1.707655   0.179841)
 103:      1456.48   54.453882  ( -6.402678   1.414201   3.385207)
 104:      1463.35   21.827619  (  3.785545   2.035925   1.830922)
 105:      1477.23  150.606606  ( 10.534145  -1.713908  -6.058127)
 106:      1558.55   49.191240  (  6.275546   0.994658  -2.969751)
 107:      1567.88  130.529432  (-10.302804   1.625916   4.662410)
 108:      1572.36    8.475360  (  0.990715  -2.063286  -1.799082)
 109:      1576.13   20.388256  ( -3.558448  -1.021283   2.585089)
 110:      1579.78   11.600024  (  2.190672  -2.565720  -0.466969)
 111:      1591.51  212.854950  ( 13.251637   0.912189  -6.034648)
 112:      2955.72    1.784260  ( -0.293372   0.500395  -1.203244)
 113:      3050.65    0.731155  ( -0.073354  -0.827707  -0.201680)
 114:      3054.21    4.078129  (  0.837630  -1.542246  -0.998990)
 115:      3062.93    2.941034  (  0.973308   1.321112  -0.498366)
 116:      3065.59    2.418150  (  1.233135   0.767339  -0.555625)
 117:      3097.20    1.607192  ( -0.369211  -1.002859  -0.682018)
 118:      3102.38    0.594991  ( -0.638607   0.148444  -0.406370)
 119:      3113.89    0.139658  ( -0.363950   0.043175   0.073032)
 120:      3115.79    1.041520  (  0.923305  -0.133396  -0.413803)
 121:      3120.63    0.556699  ( -0.629347   0.173838   0.361112)
 122:      3121.99    1.923069  ( -0.717896   1.079829  -0.491593)
 123:      3129.85    1.472924  (  0.784531   0.919530  -0.109084)
 124:      3130.69    1.376882  (  0.568798   1.023707   0.073309)
 125:      3130.92    0.242693  (  0.343658  -0.178066  -0.304769)
 126:      3136.04    2.126120  (  1.205126   0.497688   0.652762)
 127:      3139.17    0.928078  ( -0.144752   0.756776   0.578287)
 128:      3150.54    0.843853  ( -0.255231   0.798435   0.375781)
 129:      3158.73    0.197655  (  0.209248  -0.310724  -0.239418)
 130:      3171.93    0.031338  (  0.054938  -0.128100  -0.109136)
 131:      3188.15    0.309478  ( -0.393314  -0.389373   0.056310)

--------------------------
THERMOCHEMISTRY AT 298.15K
--------------------------

Temperature         ... 298.15 K
Pressure            ... 1.00 atm
Total Mass          ... 372.45 AMU

Throughout the following assumptions are being made:
  (1) The electronic state is orbitally nondegenerate
      but the spin degeneracy is treated
  (2) There are no thermally accessible electronically excited states
  (3) Hindered rotations indicated by low frequency modes are not
      treated as such but are treated as vibrations and this may
      cause some error
  (4) All equations used are the standard statistical mechanics
      equations for an ideal gas
  (5) All vibrations are strictly harmonic

freq.      22.03  E(vib)   ...       0.56
freq.      31.81  E(vib)   ...       0.55
freq.      47.77  E(vib)   ...       0.53
freq.      61.29  E(vib)   ...       0.51
freq.      61.75  E(vib)   ...       0.51
freq.      66.77  E(vib)   ...       0.50
freq.      78.62  E(vib)   ...       0.49
freq.      95.64  E(vib)   ...       0.47
freq.     112.88  E(vib)   ...       0.45
freq.     126.64  E(vib)   ...       0.43
freq.     134.69  E(vib)   ...       0.42
freq.     159.50  E(vib)   ...       0.39
freq.     169.97  E(vib)   ...       0.38
freq.     178.19  E(vib)   ...       0.37
freq.     186.17  E(vib)   ...       0.37
freq.     206.56  E(vib)   ...       0.35
freq.     210.19  E(vib)   ...       0.34
freq.     216.22  E(vib)   ...       0.34
freq.     243.65  E(vib)   ...       0.31
freq.     261.67  E(vib)   ...       0.30
freq.     286.61  E(vib)   ...       0.27
freq.     303.58  E(vib)   ...       0.26
freq.     309.26  E(vib)   ...       0.26
freq.     346.14  E(vib)   ...       0.23
freq.     372.98  E(vib)   ...       0.21
freq.     377.31  E(vib)   ...       0.21
freq.     387.48  E(vib)   ...       0.20
freq.     396.10  E(vib)   ...       0.20
freq.     421.44  E(vib)   ...       0.18
freq.     444.50  E(vib)   ...       0.17
freq.     453.18  E(vib)   ...       0.16
freq.     488.46  E(vib)   ...       0.15
freq.     508.44  E(vib)   ...       0.14
freq.     529.28  E(vib)   ...       0.13
freq.     574.98  E(vib)   ...       0.11
freq.     576.11  E(vib)   ...       0.11
freq.     594.81  E(vib)   ...       0.10
freq.     606.57  E(vib)   ...       0.10
freq.     607.93  E(vib)   ...       0.10
freq.     621.75  E(vib)   ...       0.09
freq.     669.40  E(vib)   ...       0.08
freq.     680.67  E(vib)   ...       0.08
freq.     685.83  E(vib)   ...       0.07
freq.     691.49  E(vib)   ...       0.07
freq.     717.10  E(vib)   ...       0.07
freq.     733.73  E(vib)   ...       0.06
freq.     743.93  E(vib)   ...       0.06
freq.     746.41  E(vib)   ...       0.06
freq.     777.42  E(vib)   ...       0.05
freq.     807.23  E(vib)   ...       0.05
freq.     822.44  E(vib)   ...       0.05
freq.     822.88  E(vib)   ...       0.05
freq.     840.60  E(vib)   ...       0.04
freq.     877.59  E(vib)   ...       0.04
freq.     882.39  E(vib)   ...       0.04
freq.     894.28  E(vib)   ...       0.03
freq.     900.18  E(vib)   ...       0.03
freq.     911.79  E(vib)   ...       0.03
freq.     927.20  E(vib)   ...       0.03
freq.     943.13  E(vib)   ...       0.03
freq.     949.52  E(vib)   ...       0.03
freq.     961.66  E(vib)   ...       0.03
freq.     976.58  E(vib)   ...       0.03
freq.     978.81  E(vib)   ...       0.03
freq.     981.21  E(vib)   ...       0.02
freq.     991.75  E(vib)   ...       0.02
freq.    1013.25  E(vib)   ...       0.02
freq.    1019.75  E(vib)   ...       0.02
freq.    1032.80  E(vib)   ...       0.02
freq.    1041.73  E(vib)   ...       0.02
freq.    1047.98  E(vib)   ...       0.02
freq.    1061.68  E(vib)   ...       0.02
freq.    1078.14  E(vib)   ...       0.02
freq.    1085.82  E(vib)   ...       0.02
freq.    1124.17  E(vib)   ...       0.01
freq.    1125.40  E(vib)   ...       0.01
freq.    1159.66  E(vib)   ...       0.01
freq.    1160.56  E(vib)   ...       0.01
freq.    1171.33  E(vib)   ...       0.01
freq.    1175.57  E(vib)   ...       0.01
freq.    1202.37  E(vib)   ...       0.01
freq.    1202.79  E(vib)   ...       0.01
freq.    1249.30  E(vib)   ...       0.01
freq.    1264.35  E(vib)   ...       0.01
freq.    1273.77  E(vib)   ...       0.01
freq.    1299.08  E(vib)   ...       0.01
freq.    1314.36  E(vib)   ...       0.01
freq.    1317.94  E(vib)   ...       0.01
freq.    1333.08  E(vib)   ...       0.01
freq.    1338.31  E(vib)   ...       0.01
freq.    1376.45  E(vib)   ...       0.01
freq.    1385.41  E(vib)   ...       0.00
freq.    1389.80  E(vib)   ...       0.00
freq.    1423.38  E(vib)   ...       0.00
freq.    1431.09  E(vib)   ...       0.00
freq.    1433.78  E(vib)   ...       0.00
freq.    1437.73  E(vib)   ...       0.00
freq.    1456.48  E(vib)   ...       0.00
freq.    1463.35  E(vib)   ...       0.00
freq.    1477.23  E(vib)   ...       0.00
freq.    1558.55  E(vib)   ...       0.00
freq.    1567.88  E(vib)   ...       0.00
freq.    1572.36  E(vib)   ...       0.00
freq.    1576.13  E(vib)   ...       0.00
freq.    1579.78  E(vib)   ...       0.00
freq.    1591.51  E(vib)   ...       0.00
freq.    2955.72  E(vib)   ...       0.00
freq.    3050.65  E(vib)   ...       0.00
freq.    3054.21  E(vib)   ...       0.00
freq.    3062.93  E(vib)   ...       0.00
freq.    3065.59  E(vib)   ...       0.00
freq.    3097.20  E(vib)   ...       0.00
freq.    3102.38  E(vib)   ...       0.00
freq.    3113.89  E(vib)   ...       0.00
freq.    3115.79  E(vib)   ...       0.00
freq.    3120.63  E(vib)   ...       0.00
freq.    3121.99  E(vib)   ...       0.00
freq.    3129.85  E(vib)   ...       0.00
freq.    3130.69  E(vib)   ...       0.00
freq.    3130.92  E(vib)   ...       0.00
freq.    3136.04  E(vib)   ...       0.00
freq.    3139.17  E(vib)   ...       0.00
freq.    3150.54  E(vib)   ...       0.00
freq.    3158.73  E(vib)   ...       0.00
freq.    3171.93  E(vib)   ...       0.00
freq.    3188.15  E(vib)   ...       0.00

------------
INNER ENERGY
------------

The inner energy is: U= E(el) + E(ZPE) + E(vib) + E(rot) + E(trans)
    E(el)   - is the total energy from the electronic structure calculation
              = E(kin-el) + E(nuc-el) + E(el-el) + E(nuc-nuc)
    E(ZPE)  - the the zero temperature vibrational energy from the frequency calculation
    E(vib)  - the the finite temperature correction to E(ZPE) due to population
              of excited vibrational states
    E(rot)  - is the rotational thermal energy
    E(trans)- is the translational thermal energy

Summary of contributions to the inner energy U:
Electronic energy                ...  -2326.81825081 Eh
Zero point energy                ...      0.33672520 Eh     211.30 kcal/mol

Rotational constants in cm-1:     0.010155     0.006147     0.004291

                             ****ORCA TERMINATED NORMALLY****
TOTAL RUN TIME: 0 days 14 hours 21 minutes 30 seconds 426 msec
