                         Program Version 4.2.1 -  RELEASE  -
|  1> #
|  2> # ORCA calc attempt 1 :-)
|  3> #
|  4> ! BP86 D3BJ RIJCOSX def2-TZVP def2/J Grid6 FinalGrid6 MORead CPCM TightSCF
|  5> %moinp "Cr4A_Tight.ges"
|  6> %cpcm
|  7> smd true
|  8> SMDsolvent "Toluene"
|  9> end
| 10> * xyz 1 4
| 11>   Cr  -1.02212850929260     -1.31603366868245     -2.22313265248787
| 12>   S   -3.20592241365682     -0.70814929234231     -1.34729599666747
| 13>   N   -0.38185278074552     -0.76287300239863     -0.45152163652826
| 14>   N   0.73373900343811     -2.19903457582926     -2.33835483146822
| 15>   C   -2.88176124078989     -2.47796551020207     -1.20446675879917
| 16>   C   -2.54549654208045     -3.11452595045737     -0.00361489101700
| 17>   C   -2.84689241990273     -3.18347893658016     -2.43093334805902
| 18>   C   -2.17702268291725     -4.46046179942104     -0.03146800156716
| 19>   H   -2.56163434516790     -2.55737301994160      0.93274968825416
| 20>   C   -2.47584178190892     -4.53408349202545     -2.43400426025327
| 21>   H   -3.18278850789564     -2.70140617057135     -3.35577000510154
| 22>   C   -2.13473902619899     -5.16784600589069     -1.23820663459420
| 23>   H   -1.91648515382206     -4.95989393235102      0.90184318656999
| 24>   H   -1.83894175750422     -6.21644586863229     -1.24381520986999
| 25>   H   -2.46310033557541     -5.08378182916845     -3.37497520447316
| 26>   C   -2.58513601451740     -0.01821382906535      0.17170231382214
| 27>   C   -1.19905010640798     -0.07734650094833      0.45419401373688
| 28>   C   -0.73613425138199      0.54198067599069      1.62548003502250
| 29>   C   -3.47782869344046      0.62890547266836      1.02964687111249
| 30>   C   -2.99820003001206      1.23370948509912      2.19103824436856
| 31>   H   -4.53903510928209      0.65786678800728      0.78165630241786
| 32>   C   -1.63001032936037      1.18725398240706      2.47854236027733
| 33>   H   0.32787822984375      0.54652091745494      1.85948142373211
| 34>   H   -3.68681700638073      1.74361197708152      2.86334917338124
| 35>   H   -1.24828143030257      1.67191515253067      3.37728032188098
| 36>   C   0.86099229910980     -1.19018195677567     -0.19306991788423
| 37>   C   1.49085230908250     -1.94418053165796     -1.18087480522810
| 38>   C   1.48684743380217     -2.98376351118221     -3.13826302425203
| 39>   C   2.73634423619830     -3.25204978648451     -2.52887553530581
| 40>   H   1.12618668254411     -3.31694039486747     -4.10847547300787
| 41>   C   2.74283506425660     -2.59899534568992     -1.29624144598514
| 42>   H   3.54020247457518     -2.59109110182868     -0.55901904618536
| 43>   H   3.53392370052768     -3.85030042499455     -2.95794915549505
| 44>   H   1.33730456679797     -0.98555428382564      0.76792123091386
| 45>   C   -0.65244079345288      0.31107696616777     -3.30897290997731
| 46>   H   0.41540225946169      0.56061471273778     -3.32783265008286
| 47>   H   -1.25372196370323      1.18703086424747     -3.03558728140592
| 48>   H   -0.96626503393757     -0.05351627257802     -4.31061448979400
| 49> *
| 50>
| 51>                          ****END OF INPUT****

CARTESIAN COORDINATES (ANGSTROEM)
---------------------------------
  Cr    -1.022129   -1.316034   -2.223133
  S     -3.205922   -0.708149   -1.347296
  N     -0.381853   -0.762873   -0.451522
  N      0.733739   -2.199035   -2.338355
  C     -2.881761   -2.477966   -1.204467
  C     -2.545497   -3.114526   -0.003615
  C     -2.846892   -3.183479   -2.430933
  C     -2.177023   -4.460462   -0.031468
  H     -2.561634   -2.557373    0.932750
  C     -2.475842   -4.534083   -2.434004
  H     -3.182789   -2.701406   -3.355770
  C     -2.134739   -5.167846   -1.238207
  H     -1.916485   -4.959894    0.901843
  H     -1.838942   -6.216446   -1.243815
  H     -2.463100   -5.083782   -3.374975
  C     -2.585136   -0.018214    0.171702
  C     -1.199050   -0.077347    0.454194
  C     -0.736134    0.541981    1.625480
  C     -3.477829    0.628905    1.029647
  C     -2.998200    1.233709    2.191038
  H     -4.539035    0.657867    0.781656
  C     -1.630010    1.187254    2.478542
  H      0.327878    0.546521    1.859481
  H     -3.686817    1.743612    2.863349
  H     -1.248281    1.671915    3.377280
  C      0.860992   -1.190182   -0.193070
  C      1.490852   -1.944181   -1.180875
  C      1.486847   -2.983764   -3.138263
  C      2.736344   -3.252050   -2.528876
  H      1.126187   -3.316940   -4.108475
  C      2.742835   -2.598995   -1.296241
  H      3.540202   -2.591091   -0.559019
  H      3.533924   -3.850300   -2.957949
  H      1.337305   -0.985554    0.767921
  C     -0.652441    0.311077   -3.308973
  H      0.415402    0.560615   -3.327833
  H     -1.253722    1.187031   -3.035587
  H     -0.966265   -0.053516   -4.310614

 Total Charge           Charge          ....    1
 Multiplicity           Mult            ....    4
 Number of Electrons    NEL             ....  177
 Basis Dimension        Dim             ....  798

ORBITAL ENERGIES
----------------
                 SPIN UP ORBITALS
  NO   OCC          E(Eh)            E(eV)
   0   1.0000    -214.633833     -5840.4835
   1   1.0000     -88.211298     -2400.3515
   2   1.0000     -24.365660      -663.0233
   3   1.0000     -20.731331      -564.1282
   4   1.0000     -20.729472      -564.0776
   5   1.0000     -20.725245      -563.9626
   6   1.0000     -14.103351      -383.7717
   7   1.0000     -14.076885      -383.0515
   8   1.0000     -10.023512      -272.7536
   9   1.0000     -10.020763      -272.6788
  10   1.0000     -10.019466      -272.6435
  11   1.0000     -10.006476      -272.2901
  12   1.0000      -9.991635      -271.8862
  13   1.0000      -9.987966      -271.7864
  14   1.0000      -9.985841      -271.7285
  15   1.0000      -9.982525      -271.6383
  16   1.0000      -9.978207      -271.5208
  17   1.0000      -9.975689      -271.4523
  18   1.0000      -9.974621      -271.4232
  19   1.0000      -9.971407      -271.3358
  20   1.0000      -9.969671      -271.2885
  21   1.0000      -9.967621      -271.2328
  22   1.0000      -9.962047      -271.0811
  23   1.0000      -9.958916      -270.9959
  24   1.0000      -9.948298      -270.7070
  25   1.0000      -9.926354      -270.1098
  26   1.0000      -7.790725      -211.9964
  27   1.0000      -5.811577      -158.1410
  28   1.0000      -5.807662      -158.0345
  29   1.0000      -5.803816      -157.9299
  30   1.0000      -2.844781       -77.4104
  31   1.0000      -1.841836       -50.1189
  32   1.0000      -1.836717       -49.9796
  33   1.0000      -1.826656       -49.7058
  34   1.0000      -0.954869       -25.9833
  35   1.0000      -0.928856       -25.2754
  36   1.0000      -0.876619       -23.8540
  37   1.0000      -0.852946       -23.2098
  38   1.0000      -0.811362       -22.0783
  39   1.0000      -0.772389       -21.0178
  40   1.0000      -0.760006       -20.6808
  41   1.0000      -0.754927       -20.5426
  42   1.0000      -0.751226       -20.4419
  43   1.0000      -0.724009       -19.7013
  44   1.0000      -0.704426       -19.1684
  45   1.0000      -0.659545       -17.9471
  46   1.0000      -0.653585       -17.7850
  47   1.0000      -0.632441       -17.2096
  48   1.0000      -0.620579       -16.8868
  49   1.0000      -0.608509       -16.5584
  50   1.0000      -0.596759       -16.2386
  51   1.0000      -0.577643       -15.7185
  52   1.0000      -0.552227       -15.0269
  53   1.0000      -0.542698       -14.7676
  54   1.0000      -0.532384       -14.4869
  55   1.0000      -0.526082       -14.3154
  56   1.0000      -0.500958       -13.6318
  57   1.0000      -0.492154       -13.3922
  58   1.0000      -0.485752       -13.2180
  59   1.0000      -0.476822       -12.9750
  60   1.0000      -0.463866       -12.6224
  61   1.0000      -0.457926       -12.4608
  62   1.0000      -0.452117       -12.3027
  63   1.0000      -0.450489       -12.2584
  64   1.0000      -0.439005       -11.9459
  65   1.0000      -0.437618       -11.9082
  66   1.0000      -0.430477       -11.7139
  67   1.0000      -0.413868       -11.2619
  68   1.0000      -0.408368       -11.1123
  69   1.0000      -0.405915       -11.0455
  70   1.0000      -0.405066       -11.0224
  71   1.0000      -0.401388       -10.9223
  72   1.0000      -0.394095       -10.7239
  73   1.0000      -0.386406       -10.5146
  74   1.0000      -0.384183       -10.4542
  75   1.0000      -0.380399       -10.3512
  76   1.0000      -0.379056       -10.3146
  77   1.0000      -0.375707       -10.2235
  78   1.0000      -0.362637        -9.8678
  79   1.0000      -0.356167        -9.6918
  80   1.0000      -0.321184        -8.7399
  81   1.0000      -0.314615        -8.5611
  82   1.0000      -0.308485        -8.3943
  83   1.0000      -0.304743        -8.2925
  84   1.0000      -0.295696        -8.0463
  85   1.0000      -0.292577        -7.9614
  86   1.0000      -0.278684        -7.5834
  87   1.0000      -0.269838        -7.3427
  88   1.0000      -0.242572        -6.6007
  89   1.0000      -0.241967        -6.5843
  90   0.0000      -0.185856        -5.0574
  91   0.0000      -0.171591        -4.6692
  92   0.0000      -0.144356        -3.9281
  93   0.0000      -0.130131        -3.5410
  94   0.0000      -0.125671        -3.4197

                 SPIN DOWN ORBITALS
  NO   OCC          E(Eh)            E(eV)
   0   1.0000    -214.633537     -5840.4755
   1   1.0000     -88.211498     -2400.3569
   2   1.0000     -24.325865      -661.9404
   3   1.0000     -20.701282      -563.3105
   4   1.0000     -20.699549      -563.2634
   5   1.0000     -20.694010      -563.1127
   6   1.0000     -14.104982      -383.8161
   7   1.0000     -14.077926      -383.0799
   8   1.0000     -10.023468      -272.7524
   9   1.0000     -10.019930      -272.6561
  10   1.0000     -10.019335      -272.6400
  11   1.0000     -10.006290      -272.2850
  12   1.0000      -9.991668      -271.8871
  13   1.0000      -9.987097      -271.7627
  14   1.0000      -9.985504      -271.7194
  15   1.0000      -9.982312      -271.6325
  16   1.0000      -9.977913      -271.5128
  17   1.0000      -9.975489      -271.4469
  18   1.0000      -9.974618      -271.4232
  19   1.0000      -9.971247      -271.3314
  20   1.0000      -9.969786      -271.2917
  21   1.0000      -9.967599      -271.2322
  22   1.0000      -9.962080      -271.0820
  23   1.0000      -9.958280      -270.9786
  24   1.0000      -9.948237      -270.7053
  25   1.0000      -9.928510      -270.1685
  26   1.0000      -7.790895      -212.0010
  27   1.0000      -5.811664      -158.1434
  28   1.0000      -5.807811      -158.0386
  29   1.0000      -5.804310      -157.9433
  30   1.0000      -2.738579       -74.5205
  31   1.0000      -1.737568       -47.2816
  32   1.0000      -1.732869       -47.1538
  33   1.0000      -1.721072       -46.8327
  34   1.0000      -0.954813       -25.9818
  35   1.0000      -0.929045       -25.2806
  36   1.0000      -0.876239       -23.8437
  37   1.0000      -0.852750       -23.2045
  38   1.0000      -0.811113       -22.0715
  39   1.0000      -0.771788       -21.0014
  40   1.0000      -0.759573       -20.6690
  41   1.0000      -0.754492       -20.5308
  42   1.0000      -0.750402       -20.4195
  43   1.0000      -0.723856       -19.6971
  44   1.0000      -0.704208       -19.1625
  45   1.0000      -0.659103       -17.9351
  46   1.0000      -0.655511       -17.8374
  47   1.0000      -0.631812       -17.1925
  48   1.0000      -0.620245       -16.8777
  49   1.0000      -0.608116       -16.5477
  50   1.0000      -0.596215       -16.2238
  51   1.0000      -0.576841       -15.6966
  52   1.0000      -0.551776       -15.0146
  53   1.0000      -0.542204       -14.7541
  54   1.0000      -0.531341       -14.4585
  55   1.0000      -0.525650       -14.3037
  56   1.0000      -0.500483       -13.6188
  57   1.0000      -0.491610       -13.3774
  58   1.0000      -0.485302       -13.2057
  59   1.0000      -0.476349       -12.9621
  60   1.0000      -0.463112       -12.6019
  61   1.0000      -0.457510       -12.4495
  62   1.0000      -0.451709       -12.2916
  63   1.0000      -0.448866       -12.2143
  64   1.0000      -0.437595       -11.9076
  65   1.0000      -0.434157       -11.8140
  66   1.0000      -0.428682       -11.6650
  67   1.0000      -0.412803       -11.2329
  68   1.0000      -0.407191       -11.0802
  69   1.0000      -0.404900       -11.0179
  70   1.0000      -0.403063       -10.9679
  71   1.0000      -0.399395       -10.8681
  72   1.0000      -0.392623       -10.6838
  73   1.0000      -0.385169       -10.4810
  74   1.0000      -0.383507       -10.4357
  75   1.0000      -0.379869       -10.3368
  76   1.0000      -0.375511       -10.2182
  77   1.0000      -0.371153       -10.0996
  78   1.0000      -0.359318        -9.7775
  79   1.0000      -0.352924        -9.6036
  80   1.0000      -0.315565        -8.5870
  81   1.0000      -0.309708        -8.4276
  82   1.0000      -0.304289        -8.2801
  83   1.0000      -0.296560        -8.0698
  84   1.0000      -0.289720        -7.8837
  85   1.0000      -0.286233        -7.7888
  86   1.0000      -0.254912        -6.9365
  87   0.0000      -0.178128        -4.8471
  88   0.0000      -0.169672        -4.6170
  89   0.0000      -0.163533        -4.4500
  90   0.0000      -0.148398        -4.0381
  91   0.0000      -0.140607        -3.8261

MULLIKEN ATOMIC CHARGES AND SPIN POPULATIONS
--------------------------------------------
   0 Cr:    0.269865    3.253728
   1 S :    0.039721   -0.041928
   2 N :   -0.053270   -0.130625
   3 N :   -0.118203   -0.109929
   4 C :    0.189635   -0.010731
   5 C :   -0.210052    0.015675
   6 C :   -0.104007   -0.030116
   7 C :   -0.122975    0.016105
   8 H :    0.186876   -0.000607
   9 C :   -0.148547    0.020310
  10 H :    0.202510    0.005330
  11 C :   -0.103198    0.011704
  12 H :    0.160971   -0.000900
  13 H :    0.161360   -0.000727
  14 H :    0.163409   -0.000800
  15 C :    0.031028   -0.006725
  16 C :    0.227232    0.014765
  17 C :   -0.236065   -0.007688
  18 C :   -0.116187    0.003020
  19 C :   -0.152624   -0.002885
  20 H :    0.161308    0.000545
  21 C :   -0.108378    0.001860
  22 H :    0.155059    0.000677
  23 H :    0.157385    0.000175
  24 H :    0.158143   -0.000399
  25 C :   -0.041054    0.059796
  26 C :    0.203521   -0.004193
  27 C :   -0.136623    0.062616
  28 C :   -0.105790    0.000507
  29 H :    0.164224   -0.001867
  30 C :   -0.259887    0.048170
  31 H :    0.157049   -0.002174
  32 H :    0.161158   -0.001102
  33 H :    0.163689   -0.004978
  34 C :   -0.574598   -0.213055
  35 H :    0.158180    0.023959
  36 H :    0.158242    0.018691
  37 H :    0.160895    0.013798
Sum of atomic charges         :    1.0000000

LOEWDIN ATOMIC CHARGES AND SPIN POPULATIONS
-------------------------------------------
   0 Cr:    0.042714    2.882862
   1 S :    0.913450   -0.000307
   2 N :    0.204688   -0.034819
   3 N :    0.173563   -0.010116
   4 C :   -0.319995    0.010610
   5 C :   -0.096284    0.012183
   6 C :   -0.125252    0.008440
   7 C :   -0.094515    0.012956
   8 H :    0.171492    0.000187
   9 C :   -0.095137    0.014698
  10 H :    0.182575    0.001425
  11 C :   -0.100609    0.011960
  12 H :    0.164682   -0.000005
  13 H :    0.163096    0.000021
  14 H :    0.166357    0.000067
  15 C :   -0.300822    0.005573
  16 C :   -0.184578    0.000378
  17 C :   -0.090908   -0.004340
  18 C :   -0.118721    0.000463
  19 C :   -0.120490   -0.001637
  20 H :    0.163745    0.000063
  21 C :   -0.106267    0.000502
  22 H :    0.162390    0.000131
  23 H :    0.161410    0.000074
  24 H :    0.162937   -0.000221
  25 C :   -0.099158    0.036013
  26 C :   -0.215000    0.017848
  27 C :   -0.160043    0.041987
  28 C :   -0.152957    0.012985
  29 H :    0.153399   -0.000200
  30 C :   -0.096434    0.036531
  31 H :    0.155624    0.000171
  32 H :    0.151592   -0.000294
  33 H :    0.167152   -0.001886
  34 C :   -0.398350   -0.078109
  35 H :    0.136355    0.011019
  36 H :    0.131749    0.008030
  37 H :    0.146548    0.004757

  Mayer bond orders larger than 0.100000
B(  0-Cr,  1-S ) :   0.6358 B(  0-Cr,  2-N ) :   0.7777 B(  0-Cr,  3-N ) :   0.7586
B(  0-Cr,  4-C ) :   0.2009 B(  0-Cr,  6-C ) :   0.1454 B(  0-Cr, 34-C ) :   0.9997
B(  1-S ,  4-C ) :   0.8934 B(  1-S , 15-C ) :   0.9218 B(  2-N , 16-C ) :   1.0324
B(  2-N , 25-C ) :   1.3730 B(  3-N , 26-C ) :   0.9896 B(  3-N , 27-C ) :   1.3498
B(  4-C ,  5-C ) :   1.3651 B(  4-C ,  6-C ) :   1.1578 B(  5-C ,  7-C ) :   1.4013
B(  5-C ,  8-H ) :   0.9376 B(  6-C ,  9-C ) :   1.3940 B(  6-C , 10-H ) :   0.9267
B(  7-C , 11-C ) :   1.3597 B(  7-C , 12-H ) :   0.9626 B(  9-C , 11-C ) :   1.3869
B(  9-C , 14-H ) :   0.9630 B( 11-C , 13-H ) :   0.9622 B( 15-C , 16-C ) :   1.2455
B( 15-C , 18-C ) :   1.3259 B( 16-C , 17-C ) :   1.3134 B( 17-C , 21-C ) :   1.4028
B( 17-C , 22-H ) :   0.9565 B( 18-C , 19-C ) :   1.3986 B( 18-C , 20-H ) :   0.9626
B( 19-C , 21-C ) :   1.3564 B( 19-C , 23-H ) :   0.9689 B( 21-C , 24-H ) :   0.9609
B( 25-C , 26-C ) :   1.3866 B( 25-C , 33-H ) :   0.9031 B( 26-C , 30-C ) :   1.2296
B( 27-C , 28-C ) :   1.3249 B( 27-C , 29-H ) :   0.9519 B( 28-C , 30-C ) :   1.4573
B( 28-C , 32-H ) :   0.9621 B( 30-C , 31-H ) :   0.9842 B( 34-C , 35-H ) :   0.9449
B( 34-C , 36-H ) :   0.9456 B( 34-C , 37-H ) :   0.9131

Dispersion correction           -0.107691888
FINAL SINGLE POINT ENERGY     -2248.226681024695

DIPOLE MOMENT
-------------
                                X             Y             Z
Electronic contribution:     -4.41540       1.26326      -5.35357
Nuclear contribution   :      4.20876      -2.02395       5.74041
                        -----------------------------------------
Total Dipole Moment    :     -0.20664      -0.76069       0.38684
                        -----------------------------------------
Magnitude (a.u.)       :      0.87806
Magnitude (Debye)      :      2.23185

Rotational constants in cm-1:     0.012165     0.007884     0.006443
Rotational constants in MHz :   364.710122   236.368971   193.154621

                             ****ORCA TERMINATED NORMALLY****
TOTAL RUN TIME: 0 days 0 hours 6 minutes 57 seconds 987 msec
