                         Program Version 4.2.1 -  RELEASE  -
|  1> #
|  2> # ORCA calc attempt 1 :-)
|  3> #
|  4> ! BP86 D3BJ RIJCOSX def2-TZVP def2/J Grid6 FinalGrid6 MORead CPCM TightSCF
|  5> %moinp "IM1_4F.ges"
|  6> %cpcm
|  7> smd true
|  8> SMDsolvent "Toluene"
|  9> end
| 10> * xyz 1 4
| 11>   Cr  0.51630107034940     -2.23283403980234     -1.14395890086108
| 12>   S   -1.30116084670019     -2.72743628834954      0.37017833952086
| 13>   N   0.47964464456523     -0.50302751176783     -0.13945964273830
| 14>   N   2.28719958853963     -1.55560178016894     -1.72088812978905
| 15>   C   -2.74371622997408     -3.20324432258750     -0.57446742211526
| 16>   C   -2.99563434571248     -4.57722902652294     -0.66057847176435
| 17>   C   -3.54760666948941     -2.27119161040051     -1.23627863898317
| 18>   C   -4.06326763807742     -5.02232107619038     -1.44324476034870
| 19>   H   -2.37749828713737     -5.28816833098636     -0.11001664070457
| 20>   C   -4.62248505658234     -2.73145000710588     -1.99737383965853
| 21>   H   -3.34098200954824     -1.20522145111504     -1.15423234147873
| 22>   C   -4.87646794213149     -4.10224092021290     -2.10912776819545
| 23>   H   -4.26881919270953     -6.09054525177718     -1.51429564198211
| 24>   H   -5.71629599553901     -4.45255197703969     -2.70904973792054
| 25>   H   -5.26059828523142     -2.01233321815152     -2.51142087527778
| 26>   C   -1.61102656704592     -1.05734848024344      0.91098595556465
| 27>   C   -0.62973582008639     -0.08875592147695      0.61358835654299
| 28>   C   -0.83474994027542      1.22418551176485      1.07209977888230
| 29>   C   -2.74370194886838     -0.74506619192177      1.66469701972451
| 30>   C   -2.92889610439723      0.56228029558943      2.11047074368540
| 31>   H   -3.47628363512089     -1.51997948218572      1.89073245071343
| 32>   C   -1.97233154183077      1.53972417351066      1.81022716550287
| 33>   H   -0.11755520690411      2.00790182196660      0.83072610518013
| 34>   H   -3.81454015490525      0.81778915080561      2.69095093919747
| 35>   H   -2.11876433617167      2.56484316164277      2.15034459532963
| 36>   C   1.58747345062163      0.22247162790454     -0.31294150008055
| 37>   C   2.57052086230231     -0.30567742980562     -1.15252863862507
| 38>   C   3.35579807085044     -1.88918599594361     -2.48443571032644
| 39>   C   4.34113067341287     -0.88059515585347     -2.42431754436710
| 40>   H   3.38257984772248     -2.81734631878761     -3.05075432267451
| 41>   C   3.84972966972717      0.12165420382937     -1.58186309206171
| 42>   H   4.34494853154937      1.04660930596064     -1.30114556367007
| 43>   H   5.29480969221513     -0.89252544049202     -2.94234558106973
| 44>   H   1.72333278205464      1.18145903991439      0.19251831979836
| 45>   C   -0.59828123737093     -1.58067264424972     -2.70581295439986
| 46>   H   0.05942257649679     -1.49951761446629     -3.58152494505327
| 47>   H   -0.98870960955666     -0.58790679039743     -2.44131850873819
| 48>   H   -1.43073882355840     -2.26882811469304     -2.90209886258084
| 49>   C   1.13940674786780     -4.55257916306272     -1.31420620997388
| 50>   C   0.42292977113594     -4.36211388624943     -2.44816071737471
| 51>   H   2.22550751263612     -4.43937218969622     -1.29483603667683
| 52>   H   0.67591197972339     -4.95771686122951     -0.41128651239071
| 53>   H   0.89656386404671     -4.06424054736104     -3.38472286680802
| 54>   H   -0.64730391089192     -4.57329325259457     -2.48706739095345
| 55> *
| 56>
| 57>                          ****END OF INPUT****

CARTESIAN COORDINATES (ANGSTROEM)
---------------------------------
  Cr     0.516301   -2.232834   -1.143959
  S     -1.301161   -2.727436    0.370178
  N      0.479645   -0.503028   -0.139460
  N      2.287200   -1.555602   -1.720888
  C     -2.743716   -3.203244   -0.574467
  C     -2.995634   -4.577229   -0.660578
  C     -3.547607   -2.271192   -1.236279
  C     -4.063268   -5.022321   -1.443245
  H     -2.377498   -5.288168   -0.110017
  C     -4.622485   -2.731450   -1.997374
  H     -3.340982   -1.205221   -1.154232
  C     -4.876468   -4.102241   -2.109128
  H     -4.268819   -6.090545   -1.514296
  H     -5.716296   -4.452552   -2.709050
  H     -5.260598   -2.012333   -2.511421
  C     -1.611027   -1.057348    0.910986
  C     -0.629736   -0.088756    0.613588
  C     -0.834750    1.224186    1.072100
  C     -2.743702   -0.745066    1.664697
  C     -2.928896    0.562280    2.110471
  H     -3.476284   -1.519979    1.890732
  C     -1.972332    1.539724    1.810227
  H     -0.117555    2.007902    0.830726
  H     -3.814540    0.817789    2.690951
  H     -2.118764    2.564843    2.150345
  C      1.587473    0.222472   -0.312942
  C      2.570521   -0.305677   -1.152529
  C      3.355798   -1.889186   -2.484436
  C      4.341131   -0.880595   -2.424318
  H      3.382580   -2.817346   -3.050754
  C      3.849730    0.121654   -1.581863
  H      4.344949    1.046609   -1.301146
  H      5.294810   -0.892525   -2.942346
  H      1.723333    1.181459    0.192518
  C     -0.598281   -1.580673   -2.705813
  H      0.059423   -1.499518   -3.581525
  H     -0.988710   -0.587907   -2.441319
  H     -1.430739   -2.268828   -2.902099
  C      1.139407   -4.552579   -1.314206
  C      0.422930   -4.362114   -2.448161
  H      2.225508   -4.439372   -1.294836
  H      0.675912   -4.957717   -0.411287
  H      0.896564   -4.064241   -3.384723
  H     -0.647304   -4.573293   -2.487067

 Total Charge           Charge          ....    1
 Multiplicity           Mult            ....    4
 Number of Electrons    NEL             ....  193
 Basis Dimension        Dim             ....  884

ORBITAL ENERGIES
----------------
                 SPIN UP ORBITALS
  NO   OCC          E(Eh)            E(eV)
   0   1.0000    -214.629953     -5840.3779
   1   1.0000     -88.202480     -2400.1115
   2   1.0000     -24.363772      -662.9720
   3   1.0000     -20.728698      -564.0566
   4   1.0000     -20.727186      -564.0154
   5   1.0000     -20.724285      -563.9365
   6   1.0000     -14.095241      -383.5510
   7   1.0000     -14.073237      -382.9522
   8   1.0000     -10.017898      -272.6009
   9   1.0000     -10.012559      -272.4556
  10   1.0000     -10.000630      -272.1310
  11   1.0000     -10.000328      -272.1227
  12   1.0000      -9.986716      -271.7524
  13   1.0000      -9.986453      -271.7452
  14   1.0000      -9.983264      -271.6584
  15   1.0000      -9.982136      -271.6277
  16   1.0000      -9.968795      -271.2647
  17   1.0000      -9.966793      -271.2102
  18   1.0000      -9.964854      -271.1575
  19   1.0000      -9.964630      -271.1514
  20   1.0000      -9.961986      -271.0794
  21   1.0000      -9.958562      -270.9862
  22   1.0000      -9.958484      -270.9841
  23   1.0000      -9.958170      -270.9756
  24   1.0000      -9.958046      -270.9722
  25   1.0000      -9.955529      -270.9037
  26   1.0000      -9.946399      -270.6553
  27   1.0000      -9.925130      -270.0765
  28   1.0000      -7.782428      -211.7706
  29   1.0000      -5.803030      -157.9085
  30   1.0000      -5.799649      -157.8165
  31   1.0000      -5.795321      -157.6987
  32   1.0000      -2.840962       -77.3065
  33   1.0000      -1.835373       -49.9430
  34   1.0000      -1.832077       -49.8533
  35   1.0000      -1.825191       -49.6660
  36   1.0000      -0.950486       -25.8640
  37   1.0000      -0.924329       -25.1523
  38   1.0000      -0.862083       -23.4585
  39   1.0000      -0.843368       -22.9492
  40   1.0000      -0.800778       -21.7903
  41   1.0000      -0.780625       -21.2419
  42   1.0000      -0.767593       -20.8873
  43   1.0000      -0.748802       -20.3759
  44   1.0000      -0.745079       -20.2746
  45   1.0000      -0.738700       -20.1010
  46   1.0000      -0.718823       -19.5602
  47   1.0000      -0.695625       -18.9289
  48   1.0000      -0.656195       -17.8560
  49   1.0000      -0.651627       -17.7317
  50   1.0000      -0.618562       -16.8319
  51   1.0000      -0.609494       -16.5852
  52   1.0000      -0.604790       -16.4572
  53   1.0000      -0.599170       -16.3043
  54   1.0000      -0.587475       -15.9860
  55   1.0000      -0.573122       -15.5955
  56   1.0000      -0.546513       -14.8714
  57   1.0000      -0.532403       -14.4874
  58   1.0000      -0.530808       -14.4440
  59   1.0000      -0.519933       -14.1481
  60   1.0000      -0.502525       -13.6744
  61   1.0000      -0.490899       -13.3580
  62   1.0000      -0.486601       -13.2411
  63   1.0000      -0.471033       -12.8175
  64   1.0000      -0.463786       -12.6202
  65   1.0000      -0.458872       -12.4866
  66   1.0000      -0.453415       -12.3380
  67   1.0000      -0.451966       -12.2986
  68   1.0000      -0.442729       -12.0473
  69   1.0000      -0.438363       -11.9285
  70   1.0000      -0.435117       -11.8401
  71   1.0000      -0.425548       -11.5798
  72   1.0000      -0.422060       -11.4848
  73   1.0000      -0.410930       -11.1820
  74   1.0000      -0.406096       -11.0504
  75   1.0000      -0.403902       -10.9907
  76   1.0000      -0.400665       -10.9027
  77   1.0000      -0.396702       -10.7948
  78   1.0000      -0.390246       -10.6191
  79   1.0000      -0.389405       -10.5963
  80   1.0000      -0.380874       -10.3641
  81   1.0000      -0.375631       -10.2214
  82   1.0000      -0.373516       -10.1639
  83   1.0000      -0.365583        -9.9480
  84   1.0000      -0.364201        -9.9104
  85   1.0000      -0.360299        -9.8042
  86   1.0000      -0.350321        -9.5327
  87   1.0000      -0.343531        -9.3480
  88   1.0000      -0.306471        -8.3395
  89   1.0000      -0.303060        -8.2467
  90   1.0000      -0.301528        -8.2050
  91   1.0000      -0.293873        -7.9967
  92   1.0000      -0.291802        -7.9403
  93   1.0000      -0.281659        -7.6643
  94   1.0000      -0.270740        -7.3672
  95   1.0000      -0.265414        -7.2223
  96   1.0000      -0.250804        -6.8247
  97   1.0000      -0.240878        -6.5546
  98   0.0000      -0.182722        -4.9721
  99   0.0000      -0.156144        -4.2489
 100   0.0000      -0.147092        -4.0026
 101   0.0000      -0.123433        -3.3588
 102   0.0000      -0.109765        -2.9868

                 SPIN DOWN ORBITALS
  NO   OCC          E(Eh)            E(eV)
   0   1.0000    -214.629640     -5840.3694
   1   1.0000     -88.202741     -2400.1186
   2   1.0000     -24.323852      -661.8857
   3   1.0000     -20.698915      -563.2461
   4   1.0000     -20.696724      -563.1865
   5   1.0000     -20.693022      -563.0858
   6   1.0000     -14.096336      -383.5808
   7   1.0000     -14.074104      -382.9758
   8   1.0000     -10.017427      -272.5880
   9   1.0000     -10.012477      -272.4533
  10   1.0000     -10.000453      -272.1262
  11   1.0000     -10.000027      -272.1146
  12   1.0000      -9.986397      -271.7437
  13   1.0000      -9.985592      -271.7218
  14   1.0000      -9.983677      -271.6697
  15   1.0000      -9.981782      -271.6181
  16   1.0000      -9.968809      -271.2651
  17   1.0000      -9.966781      -271.2099
  18   1.0000      -9.964915      -271.1591
  19   1.0000      -9.964625      -271.1512
  20   1.0000      -9.961974      -271.0791
  21   1.0000      -9.958575      -270.9866
  22   1.0000      -9.958481      -270.9841
  23   1.0000      -9.958156      -270.9752
  24   1.0000      -9.957913      -270.9686
  25   1.0000      -9.955508      -270.9032
  26   1.0000      -9.946207      -270.6500
  27   1.0000      -9.927648      -270.1450
  28   1.0000      -7.782641      -211.7764
  29   1.0000      -5.803189      -157.9128
  30   1.0000      -5.799903      -157.8234
  31   1.0000      -5.795854      -157.7132
  32   1.0000      -2.734193       -74.4012
  33   1.0000      -1.731840       -47.1258
  34   1.0000      -1.726644       -46.9844
  35   1.0000      -1.718420       -46.7606
  36   1.0000      -0.950361       -25.8606
  37   1.0000      -0.924554       -25.1584
  38   1.0000      -0.861962       -23.4552
  39   1.0000      -0.843253       -22.9461
  40   1.0000      -0.800756       -21.7897
  41   1.0000      -0.779564       -21.2130
  42   1.0000      -0.767201       -20.8766
  43   1.0000      -0.748451       -20.3664
  44   1.0000      -0.744946       -20.2710
  45   1.0000      -0.738643       -20.0995
  46   1.0000      -0.718704       -19.5569
  47   1.0000      -0.695555       -18.9270
  48   1.0000      -0.657184       -17.8829
  49   1.0000      -0.653078       -17.7712
  50   1.0000      -0.618369       -16.8267
  51   1.0000      -0.609405       -16.5828
  52   1.0000      -0.603220       -16.4144
  53   1.0000      -0.598831       -16.2950
  54   1.0000      -0.587083       -15.9753
  55   1.0000      -0.572610       -15.5815
  56   1.0000      -0.546204       -14.8630
  57   1.0000      -0.532051       -14.4778
  58   1.0000      -0.529823       -14.4172
  59   1.0000      -0.519663       -14.1407
  60   1.0000      -0.501522       -13.6471
  61   1.0000      -0.490543       -13.3483
  62   1.0000      -0.486162       -13.2291
  63   1.0000      -0.470867       -12.8130
  64   1.0000      -0.463460       -12.6114
  65   1.0000      -0.457858       -12.4589
  66   1.0000      -0.453050       -12.3281
  67   1.0000      -0.451375       -12.2825
  68   1.0000      -0.441715       -12.0197
  69   1.0000      -0.437441       -11.9034
  70   1.0000      -0.434026       -11.8105
  71   1.0000      -0.423532       -11.5249
  72   1.0000      -0.420327       -11.4377
  73   1.0000      -0.409619       -11.1463
  74   1.0000      -0.404704       -11.0126
  75   1.0000      -0.403457       -10.9786
  76   1.0000      -0.398601       -10.8465
  77   1.0000      -0.394838       -10.7441
  78   1.0000      -0.388720       -10.5776
  79   1.0000      -0.388172       -10.5627
  80   1.0000      -0.380576       -10.3560
  81   1.0000      -0.373842       -10.1728
  82   1.0000      -0.368784       -10.0351
  83   1.0000      -0.364742        -9.9251
  84   1.0000      -0.361120        -9.8266
  85   1.0000      -0.356589        -9.7033
  86   1.0000      -0.345290        -9.3958
  87   1.0000      -0.341870        -9.3028
  88   1.0000      -0.302271        -8.2252
  89   1.0000      -0.300870        -8.1871
  90   1.0000      -0.293528        -7.9873
  91   1.0000      -0.291213        -7.9243
  92   1.0000      -0.284799        -7.7498
  93   1.0000      -0.274543        -7.4707
  94   1.0000      -0.249739        -6.7957
  95   0.0000      -0.181072        -4.9272
  96   0.0000      -0.170133        -4.6296
  97   0.0000      -0.163066        -4.4372
  98   0.0000      -0.150882        -4.1057
  99   0.0000      -0.129672        -3.5285

MULLIKEN ATOMIC CHARGES AND SPIN POPULATIONS
--------------------------------------------
   0 Cr:    0.253667    3.323596
   1 S :   -0.005465   -0.052874
   2 N :   -0.123781   -0.097215
   3 N :   -0.135595   -0.088148
   4 C :    0.220238   -0.002984
   5 C :   -0.239315    0.003066
   6 C :   -0.225253    0.008937
   7 C :   -0.111167   -0.000069
   8 H :    0.163799    0.000605
   9 C :   -0.113629    0.000102
  10 H :    0.180318    0.000084
  11 C :   -0.129263    0.001578
  12 H :    0.154667    0.000127
  13 H :    0.153760   -0.000088
  14 H :    0.154117    0.000157
  15 C :    0.020614   -0.006699
  16 C :    0.266266    0.019596
  17 C :   -0.253578   -0.002673
  18 C :   -0.130609    0.000592
  19 C :   -0.137138   -0.001153
  20 H :    0.165960    0.000061
  21 C :   -0.117828    0.000816
  22 H :    0.147669    0.000388
  23 H :    0.155672    0.000128
  24 H :    0.155087   -0.000194
  25 C :   -0.026695    0.029951
  26 C :    0.219471    0.000045
  27 C :   -0.181689    0.029978
  28 C :   -0.099582    0.012860
  29 H :    0.171477   -0.000421
  30 C :   -0.266181    0.010798
  31 H :    0.156227   -0.000525
  32 H :    0.159907   -0.001088
  33 H :    0.161381   -0.002784
  34 C :   -0.569069   -0.263147
  35 H :    0.169877    0.019996
  36 H :    0.152592    0.027708
  37 H :    0.172376    0.020708
  38 C :   -0.281809   -0.051455
  39 C :   -0.171724    0.048465
  40 H :    0.192907    0.006017
  41 H :    0.188040    0.005960
  42 H :    0.181273   -0.000398
  43 H :    0.202008   -0.000404
Sum of atomic charges         :    1.0000000

LOEWDIN ATOMIC CHARGES AND SPIN POPULATIONS
-------------------------------------------
   0 Cr:   -0.071868    2.933336
   1 S :    0.924659    0.002612
   2 N :    0.187901   -0.018785
   3 N :    0.172756   -0.006058
   4 C :   -0.325974    0.008971
   5 C :   -0.138799    0.001409
   6 C :   -0.124419    0.001337
   7 C :   -0.122938    0.000393
   8 H :    0.159931    0.000160
   9 C :   -0.119087    0.000685
  10 H :    0.165175    0.000200
  11 C :   -0.119378    0.001092
  12 H :    0.159798    0.000097
  13 H :    0.158769    0.000003
  14 H :    0.160097    0.000115
  15 C :   -0.291679    0.003850
  16 C :   -0.188266    0.000608
  17 C :   -0.094535   -0.002224
  18 C :   -0.117802   -0.000047
  19 C :   -0.122334   -0.000742
  20 H :    0.165489    0.000038
  21 C :   -0.113077    0.000305
  22 H :    0.160899    0.000064
  23 H :    0.160498    0.000043
  24 H :    0.161482   -0.000128
  25 C :   -0.098747    0.020626
  26 C :   -0.220739    0.015148
  27 C :   -0.166087    0.013720
  28 C :   -0.155213    0.013439
  29 H :    0.152042   -0.000253
  30 C :   -0.092492    0.010278
  31 H :    0.155533    0.000095
  32 H :    0.151398   -0.000139
  33 H :    0.165791   -0.001165
  34 C :   -0.377584   -0.102110
  35 H :    0.131119    0.008633
  36 H :    0.134636    0.012216
  37 H :    0.129165    0.008977
  38 C :   -0.178554    0.005974
  39 C :   -0.140564    0.059102
  40 H :    0.158019    0.002715
  41 H :    0.154371    0.002584
  42 H :    0.157094    0.001355
  43 H :    0.153513    0.001470

  Mayer bond orders larger than 0.100000
B(  0-Cr,  1-S ) :   0.7052 B(  0-Cr,  2-N ) :   0.6755 B(  0-Cr,  3-N ) :   0.7349
B(  0-Cr, 34-C ) :   0.9733 B(  0-Cr, 38-C ) :   0.3376 B(  0-Cr, 39-C ) :   0.2891
B(  1-S ,  4-C ) :   0.8542 B(  1-S , 15-C ) :   0.9552 B(  2-N , 16-C ) :   1.0268
B(  2-N , 25-C ) :   1.4025 B(  3-N , 26-C ) :   0.9964 B(  3-N , 27-C ) :   1.3437
B(  4-C ,  5-C ) :   1.2742 B(  4-C ,  6-C ) :   1.2882 B(  5-C ,  7-C ) :   1.3964
B(  5-C ,  8-H ) :   0.9707 B(  6-C ,  9-C ) :   1.3951 B(  6-C , 10-H ) :   0.9596
B(  7-C , 11-C ) :   1.3829 B(  7-C , 12-H ) :   0.9646 B(  9-C , 11-C ) :   1.3680
B(  9-C , 14-H ) :   0.9645 B( 11-C , 13-H ) :   0.9634 B( 15-C , 16-C ) :   1.2926
B( 15-C , 18-C ) :   1.3156 B( 16-C , 17-C ) :   1.2954 B( 17-C , 21-C ) :   1.4178
B( 17-C , 22-H ) :   0.9628 B( 18-C , 19-C ) :   1.3888 B( 18-C , 20-H ) :   0.9581
B( 19-C , 21-C ) :   1.3486 B( 19-C , 23-H ) :   0.9668 B( 21-C , 24-H ) :   0.9622
B( 25-C , 26-C ) :   1.3530 B( 25-C , 33-H ) :   0.9150 B( 26-C , 30-C ) :   1.2401
B( 27-C , 28-C ) :   1.3514 B( 27-C , 29-H ) :   0.9482 B( 28-C , 30-C ) :   1.4296
B( 28-C , 32-H ) :   0.9657 B( 30-C , 31-H ) :   0.9854 B( 34-C , 35-H ) :   0.9380
B( 34-C , 36-H ) :   0.9368 B( 34-C , 37-H ) :   0.9329 B( 38-C , 39-C ) :   1.5605
B( 38-C , 40-H ) :   0.9402 B( 38-C , 41-H ) :   0.9419 B( 39-C , 42-H ) :   0.9412
B( 39-C , 43-H ) :   0.9434

Dispersion correction           -0.122059210
FINAL SINGLE POINT ENERGY     -2326.874972294910

DIPOLE MOMENT
-------------
                                X             Y             Z
Electronic contribution:      8.33360       0.52316       7.36640
Nuclear contribution   :     -8.07938      -0.96501      -7.45278
                        -----------------------------------------
Total Dipole Moment    :      0.25422      -0.44184      -0.08638
                        -----------------------------------------
Magnitude (a.u.)       :      0.51703
Magnitude (Debye)      :      1.31417

Rotational constants in cm-1:     0.010155     0.006147     0.004291
Rotational constants in MHz :   304.436468   184.292391   128.631043

                             ****ORCA TERMINATED NORMALLY****
TOTAL RUN TIME: 0 days 0 hours 7 minutes 24 seconds 330 msec
