                         Program Version 4.2.1 -  RELEASE  -
|  1> #
|  2> # ORCA calc attempt 1 :-)
|  3> #
|  4> ! BP86 D3BJ RIJCOSX def2-TZVP def2/J Grid6 FinalGrid6 MORead Freq
|  5> %moinp "Cr4A_Tight.ges"
|  6> * xyz 1 4
|  7>   Cr  -1.02212850929260     -1.31603366868245     -2.22313265248787
|  8>   S   -3.20592241365682     -0.70814929234231     -1.34729599666747
|  9>   N   -0.38185278074552     -0.76287300239863     -0.45152163652826
| 10>   N   0.73373900343811     -2.19903457582926     -2.33835483146822
| 11>   C   -2.88176124078989     -2.47796551020207     -1.20446675879917
| 12>   C   -2.54549654208045     -3.11452595045737     -0.00361489101700
| 13>   C   -2.84689241990273     -3.18347893658016     -2.43093334805902
| 14>   C   -2.17702268291725     -4.46046179942104     -0.03146800156716
| 15>   H   -2.56163434516790     -2.55737301994160      0.93274968825416
| 16>   C   -2.47584178190892     -4.53408349202545     -2.43400426025327
| 17>   H   -3.18278850789564     -2.70140617057135     -3.35577000510154
| 18>   C   -2.13473902619899     -5.16784600589069     -1.23820663459420
| 19>   H   -1.91648515382206     -4.95989393235102      0.90184318656999
| 20>   H   -1.83894175750422     -6.21644586863229     -1.24381520986999
| 21>   H   -2.46310033557541     -5.08378182916845     -3.37497520447316
| 22>   C   -2.58513601451740     -0.01821382906535      0.17170231382214
| 23>   C   -1.19905010640798     -0.07734650094833      0.45419401373688
| 24>   C   -0.73613425138199      0.54198067599069      1.62548003502250
| 25>   C   -3.47782869344046      0.62890547266836      1.02964687111249
| 26>   C   -2.99820003001206      1.23370948509912      2.19103824436856
| 27>   H   -4.53903510928209      0.65786678800728      0.78165630241786
| 28>   C   -1.63001032936037      1.18725398240706      2.47854236027733
| 29>   H   0.32787822984375      0.54652091745494      1.85948142373211
| 30>   H   -3.68681700638073      1.74361197708152      2.86334917338124
| 31>   H   -1.24828143030257      1.67191515253067      3.37728032188098
| 32>   C   0.86099229910980     -1.19018195677567     -0.19306991788423
| 33>   C   1.49085230908250     -1.94418053165796     -1.18087480522810
| 34>   C   1.48684743380217     -2.98376351118221     -3.13826302425203
| 35>   C   2.73634423619830     -3.25204978648451     -2.52887553530581
| 36>   H   1.12618668254411     -3.31694039486747     -4.10847547300787
| 37>   C   2.74283506425660     -2.59899534568992     -1.29624144598514
| 38>   H   3.54020247457518     -2.59109110182868     -0.55901904618536
| 39>   H   3.53392370052768     -3.85030042499455     -2.95794915549505
| 40>   H   1.33730456679797     -0.98555428382564      0.76792123091386
| 41>   C   -0.65244079345288      0.31107696616777     -3.30897290997731
| 42>   H   0.41540225946169      0.56061471273778     -3.32783265008286
| 43>   H   -1.25372196370323      1.18703086424747     -3.03558728140592
| 44>   H   -0.96626503393757     -0.05351627257802     -4.31061448979400
| 45> *
| 46>
| 47>                          ****END OF INPUT****

CARTESIAN COORDINATES (ANGSTROEM)
---------------------------------
  Cr    -1.022129   -1.316034   -2.223133
  S     -3.205922   -0.708149   -1.347296
  N     -0.381853   -0.762873   -0.451522
  N      0.733739   -2.199035   -2.338355
  C     -2.881761   -2.477966   -1.204467
  C     -2.545497   -3.114526   -0.003615
  C     -2.846892   -3.183479   -2.430933
  C     -2.177023   -4.460462   -0.031468
  H     -2.561634   -2.557373    0.932750
  C     -2.475842   -4.534083   -2.434004
  H     -3.182789   -2.701406   -3.355770
  C     -2.134739   -5.167846   -1.238207
  H     -1.916485   -4.959894    0.901843
  H     -1.838942   -6.216446   -1.243815
  H     -2.463100   -5.083782   -3.374975
  C     -2.585136   -0.018214    0.171702
  C     -1.199050   -0.077347    0.454194
  C     -0.736134    0.541981    1.625480
  C     -3.477829    0.628905    1.029647
  C     -2.998200    1.233709    2.191038
  H     -4.539035    0.657867    0.781656
  C     -1.630010    1.187254    2.478542
  H      0.327878    0.546521    1.859481
  H     -3.686817    1.743612    2.863349
  H     -1.248281    1.671915    3.377280
  C      0.860992   -1.190182   -0.193070
  C      1.490852   -1.944181   -1.180875
  C      1.486847   -2.983764   -3.138263
  C      2.736344   -3.252050   -2.528876
  H      1.126187   -3.316940   -4.108475
  C      2.742835   -2.598995   -1.296241
  H      3.540202   -2.591091   -0.559019
  H      3.533924   -3.850300   -2.957949
  H      1.337305   -0.985554    0.767921
  C     -0.652441    0.311077   -3.308973
  H      0.415402    0.560615   -3.327833
  H     -1.253722    1.187031   -3.035587
  H     -0.966265   -0.053516   -4.310614

 Total Charge           Charge          ....    1
 Multiplicity           Mult            ....    4
 Number of Electrons    NEL             ....  177
 Basis Dimension        Dim             ....  798

ORBITAL ENERGIES
----------------
                 SPIN UP ORBITALS
  NO   OCC          E(Eh)            E(eV)
   0   1.0000    -214.701149     -5842.3153
   1   1.0000     -88.279042     -2402.1949
   2   1.0000     -24.432738      -664.8486
   3   1.0000     -20.798477      -565.9553
   4   1.0000     -20.796620      -565.9048
   5   1.0000     -20.792232      -565.7854
   6   1.0000     -14.170673      -385.6036
   7   1.0000     -14.143426      -384.8622
   8   1.0000     -10.092878      -274.6412
   9   1.0000     -10.088950      -274.5343
  10   1.0000     -10.086525      -274.4683
  11   1.0000     -10.073405      -274.1113
  12   1.0000     -10.063041      -273.8293
  13   1.0000     -10.055354      -273.6201
  14   1.0000     -10.052580      -273.5446
  15   1.0000     -10.052518      -273.5429
  16   1.0000     -10.049105      -273.4500
  17   1.0000     -10.045989      -273.3653
  18   1.0000     -10.041857      -273.2528
  19   1.0000     -10.041344      -273.2389
  20   1.0000     -10.037457      -273.1331
  21   1.0000     -10.034575      -273.0547
  22   1.0000     -10.028590      -272.8918
  23   1.0000     -10.024778      -272.7881
  24   1.0000     -10.013604      -272.4840
  25   1.0000      -9.993297      -271.9314
  26   1.0000      -7.858423      -213.8386
  27   1.0000      -5.879292      -159.9837
  28   1.0000      -5.875360      -159.8767
  29   1.0000      -5.871507      -159.7718
  30   1.0000      -2.912025       -79.2402
  31   1.0000      -1.909467       -51.9592
  32   1.0000      -1.903987       -51.8101
  33   1.0000      -1.893688       -51.5299
  34   1.0000      -1.021855       -27.8061
  35   1.0000      -0.995617       -27.0921
  36   1.0000      -0.945753       -25.7352
  37   1.0000      -0.920431       -25.0462
  38   1.0000      -0.879395       -23.9295
  39   1.0000      -0.839473       -22.8432
  40   1.0000      -0.829948       -22.5840
  41   1.0000      -0.823846       -22.4180
  42   1.0000      -0.816669       -22.2227
  43   1.0000      -0.791267       -21.5315
  44   1.0000      -0.772078       -21.0093
  45   1.0000      -0.726787       -19.7769
  46   1.0000      -0.719942       -19.5906
  47   1.0000      -0.702421       -19.1139
  48   1.0000      -0.690125       -18.7792
  49   1.0000      -0.676587       -18.4109
  50   1.0000      -0.665290       -18.1035
  51   1.0000      -0.644859       -17.5475
  52   1.0000      -0.620034       -16.8720
  53   1.0000      -0.611883       -16.6502
  54   1.0000      -0.600490       -16.3402
  55   1.0000      -0.593435       -16.1482
  56   1.0000      -0.570047       -15.5118
  57   1.0000      -0.560117       -15.2416
  58   1.0000      -0.555020       -15.1029
  59   1.0000      -0.546829       -14.8800
  60   1.0000      -0.532597       -14.4927
  61   1.0000      -0.527077       -14.3425
  62   1.0000      -0.522138       -14.2081
  63   1.0000      -0.518681       -14.1140
  64   1.0000      -0.506623       -13.7859
  65   1.0000      -0.506276       -13.7765
  66   1.0000      -0.497428       -13.5357
  67   1.0000      -0.481529       -13.1031
  68   1.0000      -0.475047       -12.9267
  69   1.0000      -0.472984       -12.8705
  70   1.0000      -0.471425       -12.8281
  71   1.0000      -0.467517       -12.7218
  72   1.0000      -0.462027       -12.5724
  73   1.0000      -0.453989       -12.3537
  74   1.0000      -0.452889       -12.3237
  75   1.0000      -0.450960       -12.2712
  76   1.0000      -0.446288       -12.1441
  77   1.0000      -0.443753       -12.0751
  78   1.0000      -0.430711       -11.7203
  79   1.0000      -0.423697       -11.5294
  80   1.0000      -0.390408       -10.6235
  81   1.0000      -0.382249       -10.4015
  82   1.0000      -0.374854       -10.2003
  83   1.0000      -0.371201       -10.1009
  84   1.0000      -0.361706        -9.8425
  85   1.0000      -0.358736        -9.7617
  86   1.0000      -0.346854        -9.4384
  87   1.0000      -0.336689        -9.1618
  88   1.0000      -0.309291        -8.4162
  89   1.0000      -0.308198        -8.3865
  90   0.0000      -0.256318        -6.9748
  91   0.0000      -0.238442        -6.4883
  92   0.0000      -0.211493        -5.7550
  93   0.0000      -0.197976        -5.3872
  94   0.0000      -0.194736        -5.2990

                 SPIN DOWN ORBITALS
  NO   OCC          E(Eh)            E(eV)
   0   1.0000    -214.700853     -5842.3072
   1   1.0000     -88.279239     -2402.2002
   2   1.0000     -24.393035      -663.7682
   3   1.0000     -20.768490      -565.1393
   4   1.0000     -20.766828      -565.0941
   5   1.0000     -20.761017      -564.9360
   6   1.0000     -14.172288      -385.6476
   7   1.0000     -14.144457      -384.8902
   8   1.0000     -10.092825      -274.6397
   9   1.0000     -10.088162      -274.5129
  10   1.0000     -10.086397      -274.4648
  11   1.0000     -10.073215      -274.1061
  12   1.0000     -10.063077      -273.8302
  13   1.0000     -10.054479      -273.5963
  14   1.0000     -10.052294      -273.5368
  15   1.0000     -10.052219      -273.5348
  16   1.0000     -10.048803      -273.4418
  17   1.0000     -10.045787      -273.3598
  18   1.0000     -10.041853      -273.2527
  19   1.0000     -10.041175      -273.2343
  20   1.0000     -10.037570      -273.1362
  21   1.0000     -10.034553      -273.0541
  22   1.0000     -10.028621      -272.8926
  23   1.0000     -10.024133      -272.7705
  24   1.0000     -10.013534      -272.4821
  25   1.0000      -9.995484      -271.9909
  26   1.0000      -7.858590      -213.8431
  27   1.0000      -5.879375      -159.9859
  28   1.0000      -5.875508      -159.8807
  29   1.0000      -5.871993      -159.7851
  30   1.0000      -2.806047       -76.3564
  31   1.0000      -1.805403       -49.1275
  32   1.0000      -1.800497       -48.9940
  33   1.0000      -1.788201       -48.6594
  34   1.0000      -1.021815       -27.8050
  35   1.0000      -0.995756       -27.0959
  36   1.0000      -0.945349       -25.7243
  37   1.0000      -0.920238       -25.0409
  38   1.0000      -0.879128       -23.9223
  39   1.0000      -0.838891       -22.8274
  40   1.0000      -0.829461       -22.5708
  41   1.0000      -0.823446       -22.4071
  42   1.0000      -0.815811       -22.1993
  43   1.0000      -0.791118       -21.5274
  44   1.0000      -0.771836       -21.0027
  45   1.0000      -0.726267       -19.7627
  46   1.0000      -0.722032       -19.6475
  47   1.0000      -0.701771       -19.0962
  48   1.0000      -0.689779       -18.7698
  49   1.0000      -0.676217       -18.4008
  50   1.0000      -0.664771       -18.0893
  51   1.0000      -0.644042       -17.5253
  52   1.0000      -0.619578       -16.8596
  53   1.0000      -0.611412       -16.6374
  54   1.0000      -0.599566       -16.3150
  55   1.0000      -0.592828       -16.1317
  56   1.0000      -0.569544       -15.4981
  57   1.0000      -0.559518       -15.2252
  58   1.0000      -0.554599       -15.0914
  59   1.0000      -0.546413       -14.8687
  60   1.0000      -0.531923       -14.4744
  61   1.0000      -0.526792       -14.3347
  62   1.0000      -0.521707       -14.1964
  63   1.0000      -0.516968       -14.0674
  64   1.0000      -0.505194       -13.7470
  65   1.0000      -0.502822       -13.6825
  66   1.0000      -0.495513       -13.4836
  67   1.0000      -0.480433       -13.0732
  68   1.0000      -0.473496       -12.8845
  69   1.0000      -0.471448       -12.8288
  70   1.0000      -0.470169       -12.7939
  71   1.0000      -0.465483       -12.6664
  72   1.0000      -0.460648       -12.5349
  73   1.0000      -0.452698       -12.3185
  74   1.0000      -0.452241       -12.3061
  75   1.0000      -0.450546       -12.2600
  76   1.0000      -0.442878       -12.0513
  77   1.0000      -0.438818       -11.9408
  78   1.0000      -0.427365       -11.6292
  79   1.0000      -0.420450       -11.4410
  80   1.0000      -0.385255       -10.4833
  81   1.0000      -0.376802       -10.2533
  82   1.0000      -0.370592       -10.0843
  83   1.0000      -0.363317        -9.8863
  84   1.0000      -0.356486        -9.7005
  85   1.0000      -0.350973        -9.5505
  86   1.0000      -0.320544        -8.7225
  87   0.0000      -0.245904        -6.6914
  88   0.0000      -0.237890        -6.4733
  89   0.0000      -0.232093        -6.3156
  90   0.0000      -0.215965        -5.8767
  91   0.0000      -0.210628        -5.7315

MULLIKEN ATOMIC CHARGES AND SPIN POPULATIONS
--------------------------------------------
   0 Cr:    0.213945    3.253670
   1 S :    0.049773   -0.041729
   2 N :   -0.051303   -0.130220
   3 N :   -0.112411   -0.111383
   4 C :    0.192046   -0.010738
   5 C :   -0.204583    0.016831
   6 C :   -0.125487   -0.029621
   7 C :   -0.104738    0.015986
   8 H :    0.176886   -0.000648
   9 C :   -0.132406    0.020126
  10 H :    0.194645    0.005117
  11 C :   -0.088711    0.012506
  12 H :    0.151072   -0.000914
  13 H :    0.152690   -0.000752
  14 H :    0.153779   -0.000844
  15 C :    0.012825   -0.006390
  16 C :    0.215978    0.014568
  17 C :   -0.213753   -0.007254
  18 C :   -0.100469    0.002801
  19 C :   -0.130644   -0.002570
  20 H :    0.151384    0.000533
  21 C :   -0.094016    0.001617
  22 H :    0.139061    0.000722
  23 H :    0.148829    0.000184
  24 H :    0.148644   -0.000416
  25 C :   -0.045142    0.056600
  26 C :    0.201906   -0.002239
  27 C :   -0.115593    0.062863
  28 C :   -0.088444    0.001173
  29 H :    0.150124   -0.002021
  30 C :   -0.224436    0.048189
  31 H :    0.145874   -0.002138
  32 H :    0.151498   -0.001127
  33 H :    0.143832   -0.004920
  34 C :   -0.525025   -0.213588
  35 H :    0.158726    0.024081
  36 H :    0.154523    0.018783
  37 H :    0.149120    0.013160
Sum of atomic charges         :    1.0000000

LOEWDIN ATOMIC CHARGES AND SPIN POPULATIONS
-------------------------------------------
   0 Cr:    0.023033    2.880866
   1 S :    0.916936    0.000275
   2 N :    0.204462   -0.034662
   3 N :    0.172665   -0.009754
   4 C :   -0.318303    0.011099
   5 C :   -0.096041    0.012723
   6 C :   -0.131917    0.008832
   7 C :   -0.090256    0.013147
   8 H :    0.168428    0.000196
   9 C :   -0.093640    0.015035
  10 H :    0.176498    0.001478
  11 C :   -0.095105    0.012398
  12 H :    0.162123   -0.000007
  13 H :    0.161395    0.000019
  14 H :    0.163466    0.000068
  15 C :   -0.301765    0.005802
  16 C :   -0.186097    0.000330
  17 C :   -0.091362   -0.004249
  18 C :   -0.116617    0.000553
  19 C :   -0.112427   -0.001538
  20 H :    0.160656    0.000065
  21 C :   -0.098863    0.000507
  22 H :    0.157016    0.000133
  23 H :    0.160102    0.000078
  24 H :    0.161238   -0.000228
  25 C :   -0.106571    0.034030
  26 C :   -0.211046    0.018748
  27 C :   -0.155457    0.042358
  28 C :   -0.138180    0.013359
  29 H :    0.148907   -0.000189
  30 C :   -0.085603    0.036949
  31 H :    0.153276    0.000184
  32 H :    0.150957   -0.000307
  33 H :    0.160281   -0.001883
  34 C :   -0.388087   -0.079945
  35 H :    0.138607    0.011176
  36 H :    0.132655    0.008089
  37 H :    0.144635    0.004264

  Mayer bond orders larger than 0.100000
B(  0-Cr,  1-S ) :   0.6354 B(  0-Cr,  2-N ) :   0.7827 B(  0-Cr,  3-N ) :   0.7736
B(  0-Cr,  4-C ) :   0.1987 B(  0-Cr,  6-C ) :   0.1543 B(  0-Cr, 34-C ) :   1.0180
B(  1-S ,  4-C ) :   0.8889 B(  1-S , 15-C ) :   0.9372 B(  2-N , 16-C ) :   1.0347
B(  2-N , 25-C ) :   1.3700 B(  3-N , 26-C ) :   0.9956 B(  3-N , 27-C ) :   1.3405
B(  4-C ,  5-C ) :   1.3886 B(  4-C ,  6-C ) :   1.1632 B(  5-C ,  7-C ) :   1.4100
B(  5-C ,  8-H ) :   0.9341 B(  6-C ,  9-C ) :   1.4085 B(  6-C , 10-H ) :   0.9219
B(  7-C , 11-C ) :   1.3742 B(  7-C , 12-H ) :   0.9567 B(  9-C , 11-C ) :   1.4056
B(  9-C , 14-H ) :   0.9567 B( 11-C , 13-H ) :   0.9560 B( 15-C , 16-C ) :   1.2462
B( 15-C , 18-C ) :   1.3406 B( 16-C , 17-C ) :   1.3298 B( 17-C , 21-C ) :   1.4214
B( 17-C , 22-H ) :   0.9480 B( 18-C , 19-C ) :   1.4124 B( 18-C , 20-H ) :   0.9563
B( 19-C , 21-C ) :   1.3714 B( 19-C , 23-H ) :   0.9609 B( 21-C , 24-H ) :   0.9537
B( 25-C , 26-C ) :   1.4062 B( 25-C , 33-H ) :   0.8985 B( 26-C , 30-C ) :   1.2415
B( 27-C , 28-C ) :   1.3403 B( 27-C , 29-H ) :   0.9455 B( 28-C , 30-C ) :   1.4808
B( 28-C , 32-H ) :   0.9593 B( 30-C , 31-H ) :   0.9750 B( 34-C , 35-H ) :   0.9451
B( 34-C , 36-H ) :   0.9463 B( 34-C , 37-H ) :   0.9075

Dispersion correction           -0.107691888
FINAL SINGLE POINT ENERGY     -2248.168685426888

DIPOLE MOMENT
-------------
                                X             Y             Z
Electronic contribution:     -4.28697       1.34545      -5.33416
Nuclear contribution   :      4.20876      -2.02395       5.74041
                        -----------------------------------------
Total Dipole Moment    :     -0.07821      -0.67850       0.40625
                        -----------------------------------------
Magnitude (a.u.)       :      0.79468
Magnitude (Debye)      :      2.01992

Dispersion correction in the Hessian             ... done   (      3.5 sec)

VIBRATIONAL FREQUENCIES
-----------------------

Scaling factor for frequencies =  1.000000000  (already applied!)

   0:         0.00 cm**-1
   1:         0.00 cm**-1
   2:         0.00 cm**-1
   3:         0.00 cm**-1
   4:         0.00 cm**-1
   5:         0.00 cm**-1
   6:        26.69 cm**-1
   7:        30.46 cm**-1
   8:        54.38 cm**-1
   9:        66.06 cm**-1
  10:        72.13 cm**-1
  11:        79.42 cm**-1
  12:        96.92 cm**-1
  13:       117.74 cm**-1
  14:       133.93 cm**-1
  15:       153.08 cm**-1
  16:       180.99 cm**-1
  17:       189.87 cm**-1
  18:       210.49 cm**-1
  19:       219.95 cm**-1
  20:       253.54 cm**-1
  21:       274.74 cm**-1
  22:       298.45 cm**-1
  23:       310.09 cm**-1
  24:       345.10 cm**-1
  25:       375.48 cm**-1
  26:       386.83 cm**-1
  27:       394.84 cm**-1
  28:       417.60 cm**-1
  29:       439.50 cm**-1
  30:       447.60 cm**-1
  31:       466.60 cm**-1
  32:       481.29 cm**-1
  33:       532.37 cm**-1
  34:       573.64 cm**-1
  35:       578.86 cm**-1
  36:       581.49 cm**-1
  37:       605.28 cm**-1
  38:       608.12 cm**-1
  39:       623.60 cm**-1
  40:       668.15 cm**-1
  41:       670.17 cm**-1
  42:       683.88 cm**-1
  43:       688.57 cm**-1
  44:       715.08 cm**-1
  45:       721.40 cm**-1
  46:       743.31 cm**-1
  47:       747.14 cm**-1
  48:       779.51 cm**-1
  49:       818.42 cm**-1
  50:       822.07 cm**-1
  51:       843.65 cm**-1
  52:       879.09 cm**-1
  53:       882.71 cm**-1
  54:       892.17 cm**-1
  55:       893.71 cm**-1
  56:       896.53 cm**-1
  57:       927.23 cm**-1
  58:       949.27 cm**-1
  59:       966.72 cm**-1
  60:       975.32 cm**-1
  61:       978.39 cm**-1
  62:       987.10 cm**-1
  63:      1017.05 cm**-1
  64:      1027.60 cm**-1
  65:      1039.19 cm**-1
  66:      1047.60 cm**-1
  67:      1050.52 cm**-1
  68:      1074.65 cm**-1
  69:      1078.89 cm**-1
  70:      1120.27 cm**-1
  71:      1125.71 cm**-1
  72:      1160.80 cm**-1
  73:      1161.05 cm**-1
  74:      1168.79 cm**-1
  75:      1178.55 cm**-1
  76:      1205.77 cm**-1
  77:      1251.84 cm**-1
  78:      1264.11 cm**-1
  79:      1277.63 cm**-1
  80:      1291.68 cm**-1
  81:      1314.49 cm**-1
  82:      1334.92 cm**-1
  83:      1335.83 cm**-1
  84:      1343.29 cm**-1
  85:      1381.37 cm**-1
  86:      1389.70 cm**-1
  87:      1418.64 cm**-1
  88:      1427.18 cm**-1
  89:      1436.26 cm**-1
  90:      1454.47 cm**-1
  91:      1456.45 cm**-1
  92:      1473.28 cm**-1
  93:      1555.91 cm**-1
  94:      1558.33 cm**-1
  95:      1563.46 cm**-1
  96:      1568.34 cm**-1
  97:      1590.27 cm**-1
  98:      2887.00 cm**-1
  99:      3026.11 cm**-1
 100:      3052.23 cm**-1
 101:      3078.72 cm**-1
 102:      3103.41 cm**-1
 103:      3115.82 cm**-1
 104:      3116.40 cm**-1
 105:      3121.09 cm**-1
 106:      3123.74 cm**-1
 107:      3129.26 cm**-1
 108:      3130.17 cm**-1
 109:      3138.81 cm**-1
 110:      3140.65 cm**-1
 111:      3155.60 cm**-1
 112:      3172.52 cm**-1
 113:      3188.20 cm**-1

IR SPECTRUM
-----------

 Mode    freq (cm**-1)   T**2         TX         TY         TZ
-------------------------------------------------------------------
   6:        26.69    0.019487  (  0.045482   0.093070  -0.093575)
   7:        30.46    0.023307  (  0.086757   0.125453   0.006451)
   8:        54.38    0.478364  ( -0.020331   0.505755  -0.471341)
   9:        66.06    0.232673  (  0.183811   0.353894  -0.271378)
  10:        72.13    0.404647  (  0.208526   0.424371  -0.425526)
  11:        79.42    0.110236  ( -0.232126  -0.237225   0.008828)
  12:        96.92    0.236185  (  0.335582   0.273632  -0.220669)
  13:       117.74    0.151998  ( -0.284458   0.266581  -0.004105)
  14:       133.93    0.491751  (  0.084707   0.695949  -0.015184)
  15:       153.08    0.700659  ( -0.475845   0.071802   0.684890)
  16:       180.99    6.861946  (  1.701647   1.805180  -0.841232)
  17:       189.87    2.909144  ( -0.756043  -1.386809   0.643663)
  18:       210.49    0.443439  (  0.243083   0.471467   0.402577)
  19:       219.95    1.256067  ( -0.319969   1.072975  -0.049108)
  20:       253.54    1.375631  (  0.538503  -0.566106  -0.874740)
  21:       274.74    0.592133  ( -0.320819  -0.369390  -0.593935)
  22:       298.45    2.878859  (  0.623290  -0.372684  -1.533452)
  23:       310.09    3.614560  (  1.898921  -0.028280  -0.088652)
  24:       345.10    4.160447  ( -1.729477  -1.058382  -0.221774)
  25:       375.48    9.500403  (  1.472958   2.137255  -1.662209)
  26:       386.83    2.941909  (  1.118268   1.223372  -0.441301)
  27:       394.84    4.355705  (  1.224178   1.624927  -0.465519)
  28:       417.60    2.120182  (  1.295578  -0.358779  -0.559408)
  29:       439.50    3.774864  ( -1.516560  -1.097888   0.519182)
  30:       447.60    6.667648  ( -2.422458  -0.788352  -0.421719)
  31:       466.60   13.471400  (  1.301115   2.816392  -1.961233)
  32:       481.29   28.737169  (  1.367559  -3.171623   4.099727)
  33:       532.37    0.428141  ( -0.484916   0.014842   0.439064)
  34:       573.64    8.705956  ( -1.170312  -2.371086   1.309304)
  35:       578.86    1.619012  (  0.359038   1.198062  -0.233987)
  36:       581.49    3.632715  (  1.887231   0.019753   0.265862)
  37:       605.28    0.037995  (  0.047045  -0.051137  -0.182116)
  38:       608.12    2.374684  ( -1.049428  -1.126395  -0.067964)
  39:       623.60    5.756355  (  2.148596  -0.631557  -0.860829)
  40:       668.15    8.169964  (  1.399957   2.165514  -1.233139)
  41:       670.17    1.198483  ( -0.254849  -0.426131  -0.975678)
  42:       683.88    5.120940  (  2.209806  -0.158140  -0.461181)
  43:       688.57    0.231348  (  0.239599  -0.133246  -0.395203)
  44:       715.08   11.863245  ( -1.717983  -2.461112   1.689588)
  45:       721.40   63.540143  (  7.272695   3.108766  -0.991777)
  46:       743.31    5.432476  ( -1.612755  -1.336476   1.022412)
  47:       747.14   91.295501  ( -1.849165  -8.453522   4.051427)
  48:       779.51    5.935303  (  2.252599   0.103806  -0.922130)
  49:       818.42    0.872935  ( -0.317674  -0.804720  -0.352765)
  50:       822.07    1.580163  (  0.513756   0.939873  -0.657919)
  51:       843.65    0.182279  (  0.155104   0.392411  -0.065085)
  52:       879.09    0.218582  ( -0.413037  -0.214576  -0.044040)
  53:       882.71    1.396917  ( -0.885179  -0.382635  -0.683348)
  54:       892.17   14.141406  (  1.494289  -0.829331  -3.349734)
  55:       893.71    6.195568  ( -1.679529  -0.860515   1.623042)
  56:       896.53   10.678115  (  0.067805   2.908452   1.488094)
  57:       927.23    0.480682  ( -0.221724  -0.610112   0.243484)
  58:       949.27    0.085980  ( -0.189852   0.221883  -0.026537)
  59:       966.72    0.176399  ( -0.331887   0.230477   0.114589)
  60:       975.32   52.434672  ( -6.398291   2.968247   1.638918)
  61:       978.39    0.389918  ( -0.513288  -0.304756   0.183240)
  62:       987.10    4.600319  ( -0.493200  -2.045644  -0.415228)
  63:      1017.05    1.821802  (  0.002137  -1.283145  -0.418733)
  64:      1027.60    7.336477  (  2.245872  -1.209845  -0.910391)
  65:      1039.19    1.736583  ( -0.097984  -0.663060  -1.134608)
  66:      1047.60    2.452132  (  1.344691  -0.618413   0.511375)
  67:      1050.52   98.788140  ( -7.826548   4.781073   3.830747)
  68:      1074.65    3.259445  ( -0.399626  -0.714685   1.609027)
  69:      1078.89    6.913658  ( -2.101472   1.201591   1.026476)
  70:      1120.27    2.003008  (  1.292864   0.261619   0.512899)
  71:      1125.71    5.390201  ( -0.096093  -2.046135   1.092840)
  72:      1160.80    0.315719  ( -0.488664   0.062527   0.270217)
  73:      1161.05    0.772018  (  0.350299  -0.063862  -0.803263)
  74:      1168.79    1.667344  ( -1.290230   0.049865  -0.012806)
  75:      1178.55   17.278482  (  0.191459   1.944953   3.668648)
  76:      1205.77   22.532674  ( -3.906923   2.290659   1.421798)
  77:      1251.84   50.441203  (  6.073621  -2.884015  -2.287965)
  78:      1264.11   20.122376  (  3.324779  -2.112706  -2.145855)
  79:      1277.63  142.785430  ( -7.165823   5.923518   7.506553)
  80:      1291.68    2.392316  ( -0.180671   0.113470  -1.531926)
  81:      1314.49   10.976671  ( -0.477024  -1.229002  -3.039519)
  82:      1334.92    3.989261  ( -0.515654  -1.178863  -1.527627)
  83:      1335.83    2.548780  (  1.107235  -0.308713   1.107929)
  84:      1343.29    3.176571  ( -1.650040   0.649544   0.178974)
  85:      1381.37   84.030324  (  1.752809  -4.214211  -7.949743)
  86:      1389.70    9.131520  ( -0.414239  -2.621826  -1.444284)
  87:      1418.64   35.877618  ( -5.510198   2.089246   1.072559)
  88:      1427.18   13.159850  ( -0.026025   0.011503   3.627539)
  89:      1436.26    5.510365  ( -2.245899   0.640101  -0.237848)
  90:      1454.47   15.031152  (  1.203166   3.684215   0.100512)
  91:      1456.45  148.571603  (  8.959260  -5.981817  -5.702730)
  92:      1473.28  103.829890  (  7.331590  -4.830934  -5.171049)
  93:      1555.91   33.752283  ( -5.469191   1.815939   0.736610)
  94:      1558.33    1.219527  (  0.914083   0.330056   0.524445)
  95:      1563.46    8.845464  (  2.049521   1.285365  -1.729960)
  96:      1568.34  124.323272  (  6.070976  -6.094267  -7.094112)
  97:      1590.27  185.036773  ( -9.975881   6.578221   6.499660)
  98:      2887.00    6.154782  ( -1.001797  -2.015332  -1.043849)
  99:      3026.11    4.619731  ( -0.599285  -2.055947  -0.183490)
 100:      3052.23    1.120621  (  0.753827   0.655888   0.349537)
 101:      3078.72    2.239096  (  1.422730  -0.364737  -0.286186)
 102:      3103.41    0.213589  (  0.085672   0.263248   0.370067)
 103:      3115.82    0.264513  ( -0.032045  -0.117335  -0.499718)
 104:      3116.40    0.958621  (  0.412139  -0.511317  -0.726166)
 105:      3121.09    0.507974  ( -0.577412   0.229253   0.349303)
 106:      3123.74    0.366767  (  0.372928   0.319481   0.354434)
 107:      3129.26    0.299162  (  0.216822   0.474038  -0.165645)
 108:      3130.17    0.601730  (  0.758463  -0.017516   0.161732)
 109:      3138.81    0.364555  ( -0.357113  -0.486606   0.015477)
 110:      3140.65    0.419801  (  0.105583   0.408643   0.491593)
 111:      3155.60    0.136322  ( -0.238647  -0.050928  -0.277084)
 112:      3172.52    0.152671  ( -0.001738  -0.171314  -0.351170)
 113:      3188.20    0.583918  ( -0.694316   0.295314  -0.120964)

--------------------------
THERMOCHEMISTRY AT 298.15K
--------------------------

Temperature         ... 298.15 K
Pressure            ... 1.00 atm
Total Mass          ... 344.40 AMU

Throughout the following assumptions are being made:
  (1) The electronic state is orbitally nondegenerate
      but the spin degeneracy is treated
  (2) There are no thermally accessible electronically excited states
  (3) Hindered rotations indicated by low frequency modes are not
      treated as such but are treated as vibrations and this may
      cause some error
  (4) All equations used are the standard statistical mechanics
      equations for an ideal gas
  (5) All vibrations are strictly harmonic

freq.      26.69  E(vib)   ...       0.56
freq.      30.46  E(vib)   ...       0.55
freq.      54.38  E(vib)   ...       0.52
freq.      66.06  E(vib)   ...       0.50
freq.      72.13  E(vib)   ...       0.50
freq.      79.42  E(vib)   ...       0.49
freq.      96.92  E(vib)   ...       0.46
freq.     117.74  E(vib)   ...       0.44
freq.     133.93  E(vib)   ...       0.42
freq.     153.08  E(vib)   ...       0.40
freq.     180.99  E(vib)   ...       0.37
freq.     189.87  E(vib)   ...       0.36
freq.     210.49  E(vib)   ...       0.34
freq.     219.95  E(vib)   ...       0.33
freq.     253.54  E(vib)   ...       0.30
freq.     274.74  E(vib)   ...       0.28
freq.     298.45  E(vib)   ...       0.26
freq.     310.09  E(vib)   ...       0.26
freq.     345.10  E(vib)   ...       0.23
freq.     375.48  E(vib)   ...       0.21
freq.     386.83  E(vib)   ...       0.20
freq.     394.84  E(vib)   ...       0.20
freq.     417.60  E(vib)   ...       0.18
freq.     439.50  E(vib)   ...       0.17
freq.     447.60  E(vib)   ...       0.17
freq.     466.60  E(vib)   ...       0.16
freq.     481.29  E(vib)   ...       0.15
freq.     532.37  E(vib)   ...       0.13
freq.     573.64  E(vib)   ...       0.11
freq.     578.86  E(vib)   ...       0.11
freq.     581.49  E(vib)   ...       0.11
freq.     605.28  E(vib)   ...       0.10
freq.     608.12  E(vib)   ...       0.10
freq.     623.60  E(vib)   ...       0.09
freq.     668.15  E(vib)   ...       0.08
freq.     670.17  E(vib)   ...       0.08
freq.     683.88  E(vib)   ...       0.07
freq.     688.57  E(vib)   ...       0.07
freq.     715.08  E(vib)   ...       0.07
freq.     721.40  E(vib)   ...       0.07
freq.     743.31  E(vib)   ...       0.06
freq.     747.14  E(vib)   ...       0.06
freq.     779.51  E(vib)   ...       0.05
freq.     818.42  E(vib)   ...       0.05
freq.     822.07  E(vib)   ...       0.05
freq.     843.65  E(vib)   ...       0.04
freq.     879.09  E(vib)   ...       0.04
freq.     882.71  E(vib)   ...       0.04
freq.     892.17  E(vib)   ...       0.03
freq.     893.71  E(vib)   ...       0.03
freq.     896.53  E(vib)   ...       0.03
freq.     927.23  E(vib)   ...       0.03
freq.     949.27  E(vib)   ...       0.03
freq.     966.72  E(vib)   ...       0.03
freq.     975.32  E(vib)   ...       0.03
freq.     978.39  E(vib)   ...       0.03
freq.     987.10  E(vib)   ...       0.02
freq.    1017.05  E(vib)   ...       0.02
freq.    1027.60  E(vib)   ...       0.02
freq.    1039.19  E(vib)   ...       0.02
freq.    1047.60  E(vib)   ...       0.02
freq.    1050.52  E(vib)   ...       0.02
freq.    1074.65  E(vib)   ...       0.02
freq.    1078.89  E(vib)   ...       0.02
freq.    1120.27  E(vib)   ...       0.01
freq.    1125.71  E(vib)   ...       0.01
freq.    1160.80  E(vib)   ...       0.01
freq.    1161.05  E(vib)   ...       0.01
freq.    1168.79  E(vib)   ...       0.01
freq.    1178.55  E(vib)   ...       0.01
freq.    1205.77  E(vib)   ...       0.01
freq.    1251.84  E(vib)   ...       0.01
freq.    1264.11  E(vib)   ...       0.01
freq.    1277.63  E(vib)   ...       0.01
freq.    1291.68  E(vib)   ...       0.01
freq.    1314.49  E(vib)   ...       0.01
freq.    1334.92  E(vib)   ...       0.01
freq.    1335.83  E(vib)   ...       0.01
freq.    1343.29  E(vib)   ...       0.01
freq.    1381.37  E(vib)   ...       0.01
freq.    1389.70  E(vib)   ...       0.00
freq.    1418.64  E(vib)   ...       0.00
freq.    1427.18  E(vib)   ...       0.00
freq.    1436.26  E(vib)   ...       0.00
freq.    1454.47  E(vib)   ...       0.00
freq.    1456.45  E(vib)   ...       0.00
freq.    1473.28  E(vib)   ...       0.00
freq.    1555.91  E(vib)   ...       0.00
freq.    1558.33  E(vib)   ...       0.00
freq.    1563.46  E(vib)   ...       0.00
freq.    1568.34  E(vib)   ...       0.00
freq.    1590.27  E(vib)   ...       0.00
freq.    2887.00  E(vib)   ...       0.00
freq.    3026.11  E(vib)   ...       0.00
freq.    3052.23  E(vib)   ...       0.00
freq.    3078.72  E(vib)   ...       0.00
freq.    3103.41  E(vib)   ...       0.00
freq.    3115.82  E(vib)   ...       0.00
freq.    3116.40  E(vib)   ...       0.00
freq.    3121.09  E(vib)   ...       0.00
freq.    3123.74  E(vib)   ...       0.00
freq.    3129.26  E(vib)   ...       0.00
freq.    3130.17  E(vib)   ...       0.00
freq.    3138.81  E(vib)   ...       0.00
freq.    3140.65  E(vib)   ...       0.00
freq.    3155.60  E(vib)   ...       0.00
freq.    3172.52  E(vib)   ...       0.00
freq.    3188.20  E(vib)   ...       0.00

------------
INNER ENERGY
------------

The inner energy is: U= E(el) + E(ZPE) + E(vib) + E(rot) + E(trans)
    E(el)   - is the total energy from the electronic structure calculation
              = E(kin-el) + E(nuc-el) + E(el-el) + E(nuc-nuc)
    E(ZPE)  - the the zero temperature vibrational energy from the frequency calculation
    E(vib)  - the the finite temperature correction to E(ZPE) due to population
              of excited vibrational states
    E(rot)  - is the rotational thermal energy
    E(trans)- is the translational thermal energy

Summary of contributions to the inner energy U:
Electronic energy                ...  -2248.16868543 Eh
Zero point energy                ...      0.28381490 Eh     178.10 kcal/mol
Thermal vibrational correction   ...      0.01778572 Eh      11.16 kcal/mol
Thermal rotational correction    ...      0.00141627 Eh       0.89 kcal/mol
Thermal translational correction ...      0.00141627 Eh       0.89 kcal/mol
-----------------------------------------------------------------------
Total thermal energy                  -2247.86425226 Eh

Summary of corrections to the electronic energy:
(perhaps to be used in another calculation)
Total thermal correction                  0.02061826 Eh      12.94 kcal/mol
Non-thermal (ZPE) correction              0.28381490 Eh     178.10 kcal/mol
-----------------------------------------------------------------------
Total correction                          0.30443316 Eh     191.03 kcal/mol

--------
ENTHALPY
--------

Rotational constants in cm-1:     0.012165     0.007884     0.006443

                             ****ORCA TERMINATED NORMALLY****
TOTAL RUN TIME: 0 days 10 hours 40 minutes 23 seconds 144 msec
